                         Program Version 5.0.4 -  RELEASE  -
|  1> ! OPT FREQ B3LYP 6-31G(d) D4 AUTOAUX
|  2> ! CPCM
|  3>
|  4> %cpcm
|  5> epsilon 9.8629
|  6> refrac  1.4295
|  7> end
|  8>
|  9> %PAL NPROCS 4 END
| 10>
| 11> %maxcore 3375
| 12>
| 13> *xyzfile 0 1 /users/fjb15167/WWenergy/structures/Nt.xyz
| 14>
| 15>                          ****END OF INPUT****
 Total Charge           Charge          ....    0
 Multiplicity           Mult            ....    1
 Number of Electrons    NEL             ....  102
Dispersion correction           -0.046660892
FINAL SINGLE POINT ENERGY      -649.345363480280
Dispersion correction            ... Starting D4
Dispersion correction           -0.046309461
FINAL SINGLE POINT ENERGY      -649.346163360994
Dispersion correction            ... Starting D4
Dispersion correction           -0.046276018
FINAL SINGLE POINT ENERGY      -649.346462568711
Dispersion correction            ... Starting D4
FINAL SINGLE POINT ENERGY      -649.346559135608
FINAL SINGLE POINT ENERGY      -649.346613219561
FINAL SINGLE POINT ENERGY      -649.346633002353
FINAL SINGLE POINT ENERGY      -649.346646054692
FINAL SINGLE POINT ENERGY      -649.346652741372
FINAL SINGLE POINT ENERGY      -649.346662988154
FINAL SINGLE POINT ENERGY      -649.346673338269
FINAL SINGLE POINT ENERGY      -649.346681743581
FINAL SINGLE POINT ENERGY      -649.346685230700
FINAL SINGLE POINT ENERGY      -649.346684361627
FINAL SINGLE POINT ENERGY      -649.346687662624
FINAL SINGLE POINT ENERGY      -649.346695365128
FINAL SINGLE POINT ENERGY      -649.346698787372
FINAL SINGLE POINT ENERGY      -649.346704156379
Dispersion correction           -0.046254120
FINAL SINGLE POINT ENERGY      -649.346704307457
Dispersion correction            ... Starting D4
Dispersion correction           -0.046250753
FINAL SINGLE POINT ENERGY      -649.346704231031
Dispersion correction            ... Starting D4
                    ***********************HURRAY********************

CARTESIAN COORDINATES (ANGSTROEM)
---------------------------------
  C      2.813209    1.423229   -0.853286
  H      3.512247    0.826719   -0.268324
  H      3.116186    2.473431   -0.846514
  H      2.830734    1.079551   -1.894346
  C      1.392420    1.356858   -0.328835
  O      0.616910    2.298769   -0.520451
  N      0.982768    0.251367    0.378932
  C     -0.390813    0.271637    0.850143
  H     -0.473211   -0.380921    1.724277
  H     -0.634148    1.288542    1.163170
  C      1.739980   -0.988349    0.556054
  H      1.066473   -1.646326    1.118804
  C      2.107501   -1.708733   -0.741040
  H      1.202312   -1.866198   -1.332089
  H      2.830130   -1.145538   -1.336046
  C     -1.377545   -0.185511   -0.241366
  N     -2.701480   -0.126307    0.064378
  O     -0.962870   -0.592249   -1.331166
  C     -3.250698    0.390729    1.311784
  H     -4.005402   -0.307914    1.691819
  H     -2.481643    0.505614    2.073628
  H     -3.734050    1.363426    1.149160
  C     -3.692095   -0.501902   -0.937235
  H     -4.305820    0.366486   -1.209747
  H     -3.176501   -0.873988   -1.821056
  H     -4.352190   -1.281548   -0.537973
  O      2.879779   -0.691467    1.362811
  H      3.492241   -1.442725    1.288801
  H      2.548575   -2.683681   -0.500286

 Multiplicity           Mult            ....    1
 Number of Electrons    NEL             ....  102
 Basis Dimension        Dim             ....  214

ORBITAL ENERGIES
----------------

  NO   OCC          E(Eh)            E(eV)
   0   2.0000     -19.140763      -520.8466
   1   2.0000     -19.106153      -519.9049
   2   2.0000     -19.104253      -519.8532
   3   2.0000     -14.357797      -390.6955
   4   2.0000     -14.353062      -390.5667
   5   2.0000     -10.279133      -279.7094
   6   2.0000     -10.278797      -279.7003
   7   2.0000     -10.266151      -279.3562
   8   2.0000     -10.213206      -277.9155
   9   2.0000     -10.204724      -277.6847
  10   2.0000     -10.195961      -277.4462
  11   2.0000     -10.165164      -276.6082
  12   2.0000     -10.162136      -276.5258
  13   2.0000      -1.037462       -28.2308
  14   2.0000      -1.025567       -27.9071
  15   2.0000      -1.017555       -27.6891
  16   2.0000      -0.928526       -25.2665
  17   2.0000      -0.918957       -25.0061
  18   2.0000      -0.758187       -20.6313
  19   2.0000      -0.738361       -20.0918
  20   2.0000      -0.719731       -19.5849
  21   2.0000      -0.706256       -19.2182
  22   2.0000      -0.668628       -18.1943
  23   2.0000      -0.644183       -17.5291
  24   2.0000      -0.553443       -15.0599
  25   2.0000      -0.522274       -14.2118
  26   2.0000      -0.509544       -13.8654
  27   2.0000      -0.503954       -13.7133
  28   2.0000      -0.489603       -13.3228
  29   2.0000      -0.471418       -12.8279
  30   2.0000      -0.464169       -12.6307
  31   2.0000      -0.455716       -12.4007
  32   2.0000      -0.435266       -11.8442
  33   2.0000      -0.425981       -11.5915
  34   2.0000      -0.418934       -11.3998
  35   2.0000      -0.408472       -11.1151
  36   2.0000      -0.400198       -10.8899
  37   2.0000      -0.397333       -10.8120
  38   2.0000      -0.394681       -10.7398
  39   2.0000      -0.388995       -10.5851
  40   2.0000      -0.376007       -10.2317
  41   2.0000      -0.374193       -10.1823
  42   2.0000      -0.371687       -10.1141
  43   2.0000      -0.353133        -9.6092
  44   2.0000      -0.342377        -9.3166
  45   2.0000      -0.336104        -9.1458
  46   2.0000      -0.275932        -7.5085
  47   2.0000      -0.255803        -6.9608
  48   2.0000      -0.248376        -6.7587
  49   2.0000      -0.238362        -6.4862
  50   2.0000      -0.236192        -6.4271
  51   0.0000       0.024244         0.6597
  52   0.0000       0.030384         0.8268
  53   0.0000       0.086212         2.3459
  54   0.0000       0.100692         2.7400
  55   0.0000       0.115996         3.1564

MULLIKEN ATOMIC CHARGES
-----------------------
   0 C :   -0.559107
   1 H :    0.184854
   2 H :    0.177521
   3 H :    0.193030
   4 C :    0.533506
   5 O :   -0.533871
   6 N :   -0.373646
   7 C :   -0.285286
   8 H :    0.201954
   9 H :    0.202846
  10 C :    0.268397
  11 H :    0.153366
  12 C :   -0.501447
  13 H :    0.179060
  14 H :    0.169573
  15 C :    0.544459
  16 N :   -0.370764
  17 O :   -0.524257
  18 C :   -0.333995
  19 H :    0.176390
  20 H :    0.193948
  21 H :    0.175942
  22 C :   -0.329750
  23 H :    0.169896
  24 H :    0.187710
  25 H :    0.169120
  26 O :   -0.660459
  27 H :    0.432025
  28 H :    0.158986
Sum of atomic charges:   -0.0000000

LOEWDIN ATOMIC CHARGES
----------------------
   0 C :   -0.400657
   1 H :    0.146689
   2 H :    0.150011
   3 H :    0.156820
   4 C :    0.126710
   5 O :   -0.330264
   6 N :   -0.062025
   7 C :   -0.191820
   8 H :    0.155466
   9 H :    0.158703
  10 C :    0.045591
  11 H :    0.126617
  12 C :   -0.393929
  13 H :    0.146420
  14 H :    0.137841
  15 C :    0.103598
  16 N :   -0.076479
  17 O :   -0.328326
  18 C :   -0.276001
  19 H :    0.138097
  20 H :    0.148243
  21 H :    0.134689
  22 C :   -0.278736
  23 H :    0.132946
  24 H :    0.148973
  25 H :    0.133349
  26 O :   -0.420348
  27 H :    0.332595
  28 H :    0.135228

  Mayer bond orders larger than 0.100000
B(  0-C ,  1-H ) :   0.9058 B(  0-C ,  2-H ) :   0.9359 B(  0-C ,  3-H ) :   0.9233
B(  0-C ,  4-C ) :   0.9961 B(  4-C ,  5-O ) :   1.7868 B(  4-C ,  6-N ) :   1.1355
B(  6-N ,  7-C ) :   0.9796 B(  6-N , 10-C ) :   0.9446 B(  7-C ,  8-H ) :   0.9063
B(  7-C ,  9-H ) :   0.8987 B(  7-C , 15-C ) :   0.9098 B( 10-C , 11-H ) :   0.9206
B( 10-C , 12-C ) :   1.0073 B( 10-C , 26-O ) :   0.9373 B( 12-C , 13-H ) :   0.9186
B( 12-C , 14-H ) :   0.9341 B( 12-C , 28-H ) :   0.9361 B( 15-C , 16-N ) :   1.1757
B( 15-C , 17-O ) :   1.7780 B( 16-N , 18-C ) :   0.9569 B( 16-N , 22-C ) :   0.9482
B( 18-C , 19-H ) :   0.9333 B( 18-C , 20-H ) :   0.9259 B( 18-C , 21-H ) :   0.9310
B( 22-C , 23-H ) :   0.9371 B( 22-C , 24-H ) :   0.9245 B( 22-C , 25-H ) :   0.9375
B( 26-O , 27-H ) :   0.7584

Dispersion correction           -0.046249820
FINAL SINGLE POINT ENERGY      -649.346704526011

DIPOLE MOMENT
-------------
                                X             Y             Z
Electronic contribution:      2.34930       2.93965       0.50923
Nuclear contribution   :     -2.85589      -4.67433       0.89038
                        -----------------------------------------
Total Dipole Moment    :     -0.50660      -1.73468       1.39962
                        -----------------------------------------
Magnitude (a.u.)       :      2.28576
Magnitude (Debye)      :      5.80993

Dispersion correction in the Hessian             ... Starting D4

VIBRATIONAL FREQUENCIES
-----------------------

Scaling factor for frequencies =  1.000000000  (already applied!)

   0:         0.00 cm**-1
   1:         0.00 cm**-1
   2:         0.00 cm**-1
   3:         0.00 cm**-1
   4:         0.00 cm**-1
   5:         0.00 cm**-1
   6:        14.65 cm**-1
   7:        38.29 cm**-1
   8:        51.67 cm**-1
   9:        72.05 cm**-1
  10:       101.34 cm**-1
  11:       103.25 cm**-1
  12:       125.64 cm**-1
  13:       137.75 cm**-1
  14:       177.79 cm**-1
  15:       212.28 cm**-1
  16:       217.90 cm**-1
  17:       233.87 cm**-1
  18:       247.87 cm**-1
  19:       267.67 cm**-1
  20:       294.53 cm**-1
  21:       356.19 cm**-1
  22:       386.55 cm**-1
  23:       398.80 cm**-1
  24:       444.00 cm**-1
  25:       458.47 cm**-1
  26:       501.08 cm**-1
  27:       542.73 cm**-1
  28:       573.36 cm**-1
  29:       604.82 cm**-1
  30:       625.99 cm**-1
  31:       688.71 cm**-1
  32:       736.46 cm**-1
  33:       822.97 cm**-1
  34:       902.03 cm**-1
  35:       956.46 cm**-1
  36:       975.28 cm**-1
  37:      1023.63 cm**-1
  38:      1036.02 cm**-1
  39:      1072.05 cm**-1
  40:      1085.85 cm**-1
  41:      1093.80 cm**-1
  42:      1130.89 cm**-1
  43:      1134.33 cm**-1
  44:      1156.17 cm**-1
  45:      1165.09 cm**-1
  46:      1183.60 cm**-1
  47:      1219.46 cm**-1
  48:      1286.77 cm**-1
  49:      1306.62 cm**-1
  50:      1324.19 cm**-1
  51:      1384.99 cm**-1
  52:      1386.83 cm**-1
  53:      1401.01 cm**-1
  54:      1417.49 cm**-1
  55:      1426.21 cm**-1
  56:      1442.99 cm**-1
  57:      1453.19 cm**-1
  58:      1471.07 cm**-1
  59:      1491.14 cm**-1
  60:      1491.96 cm**-1
  61:      1501.98 cm**-1
  62:      1507.72 cm**-1
  63:      1509.90 cm**-1
  64:      1512.74 cm**-1
  65:      1519.71 cm**-1
  66:      1521.73 cm**-1
  67:      1538.16 cm**-1
  68:      1557.81 cm**-1
  69:      1714.56 cm**-1
  70:      1726.48 cm**-1
  71:      3037.90 cm**-1
  72:      3043.24 cm**-1
  73:      3044.76 cm**-1
  74:      3062.61 cm**-1
  75:      3068.67 cm**-1
  76:      3090.60 cm**-1
  77:      3091.05 cm**-1
  78:      3094.25 cm**-1
  79:      3136.63 cm**-1
  80:      3139.78 cm**-1
  81:      3148.13 cm**-1
  82:      3170.93 cm**-1
  83:      3190.43 cm**-1
  84:      3193.10 cm**-1
  85:      3194.24 cm**-1
  86:      3729.14 cm**-1

IR SPECTRUM
-----------

 Mode   freq       eps      Int      T**2         TX        TY        TZ
       cm**-1   L/(mol*cm) km/mol    a.u.
----------------------------------------------------------------------------
  6:     14.65   0.000605    3.06  0.012883  ( 0.055135  0.094545 -0.030078)
  7:     38.29   0.000078    0.40  0.000638  (-0.023339  0.009388  0.002364)
  8:     51.67   0.001187    6.00  0.007171  ( 0.046745  0.070548  0.003069)
  9:     72.05   0.001540    7.78  0.006670  ( 0.028030 -0.018119  0.074541)
 10:    101.34   0.000351    1.77  0.001080  ( 0.001277 -0.025912 -0.020163)
 11:    103.25   0.001000    5.06  0.003024  ( 0.039248 -0.032365  0.020882)
 12:    125.64   0.001180    5.96  0.002931  (-0.041643 -0.008524 -0.033534)
 13:    137.75   0.000505    2.55  0.001144  ( 0.021318 -0.024766  0.008729)
 14:    177.79   0.012749   64.43  0.022377  ( 0.064377  0.056669 -0.122562)
 15:    212.28   0.005595   28.27  0.008225  ( 0.033098  0.031873 -0.078187)
 16:    217.90   0.013544   68.45  0.019397  (-0.056827 -0.057736  0.113287)
 17:    233.87   0.002689   13.59  0.003588  (-0.016726 -0.048700  0.030609)
 18:    247.87   0.002625   13.26  0.003305  (-0.044159 -0.010756  0.035199)
 19:    267.67   0.000362    1.83  0.000422  ( 0.012792 -0.007075  0.014448)
 20:    294.53   0.000708    3.58  0.000750  (-0.002652  0.020593 -0.017871)
 21:    356.19   0.002943   14.87  0.002578  ( 0.044611  0.023743 -0.004909)
 22:    386.55   0.002356   11.91  0.001902  ( 0.032456 -0.019750  0.021419)
 23:    398.80   0.002255   11.40  0.001764  (-0.028090 -0.031212  0.001123)
 24:    444.00   0.001331    6.73  0.000935  (-0.026558 -0.014812 -0.003267)
 25:    458.47   0.000778    3.93  0.000530  ( 0.006351  0.008132  0.020570)
 26:    501.08   0.005601   28.31  0.003488  ( 0.048275  0.011091 -0.032171)
 27:    542.73   0.004165   21.05  0.002395  (-0.022805 -0.034016  0.026791)
 28:    573.36   0.001892    9.56  0.001030  ( 0.030233 -0.000225 -0.010748)
 29:    604.82   0.000822    4.15  0.000424  (-0.012896  0.015954  0.001755)
 30:    625.99   0.006098   30.82  0.003040  (-0.046332 -0.002797 -0.029754)
 31:    688.71   0.007413   37.46  0.003359  ( 0.051663 -0.023664  0.011399)
 32:    736.46   0.000274    1.38  0.000116  (-0.008986 -0.000534 -0.005916)
 33:    822.97   0.004769   24.10  0.001808  ( 0.022544 -0.015224 -0.032684)
 34:    902.03   0.003856   19.48  0.001334  (-0.027142 -0.001707 -0.024377)
 35:    956.46   0.009853   49.79  0.003215  (-0.027028  0.031467 -0.038650)
 36:    975.28   0.001561    7.89  0.000499  (-0.009633 -0.012975  0.015433)
 37:   1023.63   0.003601   18.20  0.001098  ( 0.022536 -0.019933  0.013874)
 38:   1036.02   0.007666   38.74  0.002309  ( 0.018321 -0.044330  0.002895)
 39:   1072.05   0.002717   13.73  0.000791  ( 0.005618  0.000608  0.027547)
 40:   1085.85   0.001604    8.11  0.000461  ( 0.002980 -0.010891 -0.018264)
 41:   1093.80   0.000568    2.87  0.000162  ( 0.006760  0.009607 -0.004896)
 42:   1130.89   0.039520  199.72  0.010905  (-0.079678  0.012937 -0.066253)
 43:   1134.33   0.000352    1.78  0.000097  (-0.007683  0.004978  0.003624)
 44:   1156.17   0.008581   43.36  0.002316  (-0.045669  0.013219 -0.007460)
 45:   1165.09   0.046456  234.77  0.012443  (-0.110845 -0.001380  0.012432)
 46:   1183.60   0.001754    8.86  0.000462  ( 0.019608 -0.004120  0.007811)
 47:   1219.46   0.007954   40.20  0.002035  (-0.027199  0.029437 -0.020714)
 48:   1286.77   0.013361   67.52  0.003240  (-0.051894 -0.014261 -0.018545)
 49:   1306.62   0.013335   67.39  0.003185  ( 0.013979  0.021939  0.050081)
 50:   1324.19   0.043960  222.16  0.010360  ( 0.065503  0.067618 -0.038692)
 51:   1384.99   0.009872   49.89  0.002224  (-0.046642 -0.003812 -0.005856)
 52:   1386.83   0.008793   44.44  0.001979  ( 0.022713 -0.027305 -0.026780)
 53:   1401.01   0.019259   97.33  0.004290  ( 0.009229  0.064818 -0.001785)
 54:   1417.49   0.035026  177.01  0.007711  ( 0.035966  0.072160 -0.034792)
 55:   1426.21   0.012522   63.28  0.002740  (-0.010598  0.046536  0.021494)
 56:   1442.99   0.009172   46.35  0.001984  ( 0.041475 -0.006613 -0.014819)
 57:   1453.19   0.013520   68.32  0.002903  (-0.050239 -0.011365 -0.015814)
 58:   1471.07   0.004720   23.85  0.001001  ( 0.025827 -0.017820  0.004075)
 59:   1491.14   0.000270    1.36  0.000056  ( 0.004254  0.006165 -0.000588)
 60:   1491.96   0.003280   16.57  0.000686  ( 0.009941  0.008993  0.022501)
 61:   1501.98   0.002283   11.54  0.000474  (-0.012486 -0.017519 -0.003396)
 62:   1507.72   0.008605   43.49  0.001781  ( 0.026546  0.004304 -0.032524)
 63:   1509.90   0.004716   23.84  0.000975  (-0.020111 -0.023870  0.000768)
 64:   1512.74   0.004361   22.04  0.000900  (-0.005394 -0.027970  0.009389)
 65:   1519.71   0.002270   11.47  0.000466  (-0.000785  0.006858 -0.020455)
 66:   1521.73   0.001580    7.98  0.000324  (-0.000368  0.017173  0.005378)
 67:   1538.16   0.016249   82.12  0.003297  (-0.038119 -0.014125  0.040548)
 68:   1557.81   0.017502   88.45  0.003506  ( 0.058819  0.006306  0.002567)
 69:   1714.56   0.127344  643.54  0.023178  ( 0.096847 -0.115244 -0.022740)
 70:   1726.48   0.072052  364.12  0.013024  ( 0.057465  0.024523 -0.095499)
 71:   3037.90   0.006314   31.91  0.000649  (-0.003381 -0.013427 -0.021375)
 72:   3043.24   0.020886  105.55  0.002142  (-0.044670  0.011018  0.004986)
 73:   3044.76   0.010525   53.19  0.001079  ( 0.023858  0.017317 -0.014478)
 74:   3062.61   0.005300   26.78  0.000540  (-0.010683  0.020625  0.000708)
 75:   3068.67   0.001206    6.09  0.000123  ( 0.006027 -0.001492 -0.009169)
 76:   3090.60   0.015210   76.87  0.001536  ( 0.006545  0.035797 -0.014544)
 77:   3091.05   0.006979   35.27  0.000705  (-0.018546 -0.010179  0.016032)
 78:   3094.25   0.000249    1.26  0.000025  (-0.003964 -0.001701  0.002558)
 79:   3136.63   0.005617   28.39  0.000559  (-0.007370 -0.022012  0.004471)
 80:   3139.78   0.002392   12.09  0.000238  (-0.003286  0.005546 -0.014005)
 81:   3148.13   0.000832    4.20  0.000082  ( 0.007182 -0.005555 -0.000200)
 82:   3170.93   0.002767   13.99  0.000272  (-0.012962 -0.008521  0.005633)
 83:   3190.43   0.000614    3.10  0.000060  (-0.006396  0.004262  0.001004)
 84:   3193.10   0.000921    4.65  0.000090  (-0.009023  0.001169 -0.002685)
 85:   3194.24   0.002562   12.95  0.000250  ( 0.008671  0.003256  0.012826)
 86:   3729.14   0.010399   52.55  0.000870  (-0.023517  0.017160 -0.004765)

--------------------------
THERMOCHEMISTRY AT 298.15K
--------------------------

Temperature         ... 298.15 K
Pressure            ... 1.00 atm
Total Mass          ... 188.23 AMU

Throughout the following assumptions are being made:
  (1) The electronic state is orbitally nondegenerate
  (2) There are no thermally accessible electronically excited states
  (3) Hindered rotations indicated by low frequency modes are not
      treated as such but are treated as vibrations and this may
      cause some error
  (4) All equations used are the standard statistical mechanics
      equations for an ideal gas
  (5) All vibrations are strictly harmonic

freq.      14.65  E(vib)   ...       0.57
freq.      38.29  E(vib)   ...       0.54
freq.      51.67  E(vib)   ...       0.52
freq.      72.05  E(vib)   ...       0.50
freq.     101.34  E(vib)   ...       0.46
freq.     103.25  E(vib)   ...       0.46
freq.     125.64  E(vib)   ...       0.43
freq.     137.75  E(vib)   ...       0.42
freq.     177.79  E(vib)   ...       0.37
freq.     212.28  E(vib)   ...       0.34
freq.     217.90  E(vib)   ...       0.33
freq.     233.87  E(vib)   ...       0.32
freq.     247.87  E(vib)   ...       0.31
freq.     267.67  E(vib)   ...       0.29
freq.     294.53  E(vib)   ...       0.27
freq.     356.19  E(vib)   ...       0.22
freq.     386.55  E(vib)   ...       0.20
freq.     398.80  E(vib)   ...       0.19
freq.     444.00  E(vib)   ...       0.17
freq.     458.47  E(vib)   ...       0.16
freq.     501.08  E(vib)   ...       0.14
freq.     542.73  E(vib)   ...       0.12
freq.     573.36  E(vib)   ...       0.11
freq.     604.82  E(vib)   ...       0.10
freq.     625.99  E(vib)   ...       0.09
freq.     688.71  E(vib)   ...       0.07
freq.     736.46  E(vib)   ...       0.06
freq.     822.97  E(vib)   ...       0.05
freq.     902.03  E(vib)   ...       0.03
freq.     956.46  E(vib)   ...       0.03
freq.     975.28  E(vib)   ...       0.03
freq.    1023.63  E(vib)   ...       0.02
freq.    1036.02  E(vib)   ...       0.02
freq.    1072.05  E(vib)   ...       0.02
freq.    1085.85  E(vib)   ...       0.02
freq.    1093.80  E(vib)   ...       0.02
freq.    1130.89  E(vib)   ...       0.01
freq.    1134.33  E(vib)   ...       0.01
freq.    1156.17  E(vib)   ...       0.01
freq.    1165.09  E(vib)   ...       0.01
freq.    1183.60  E(vib)   ...       0.01
freq.    1219.46  E(vib)   ...       0.01
freq.    1286.77  E(vib)   ...       0.01
freq.    1306.62  E(vib)   ...       0.01
freq.    1324.19  E(vib)   ...       0.01
freq.    1384.99  E(vib)   ...       0.00
freq.    1386.83  E(vib)   ...       0.00
freq.    1401.01  E(vib)   ...       0.00
freq.    1417.49  E(vib)   ...       0.00
freq.    1426.21  E(vib)   ...       0.00
freq.    1442.99  E(vib)   ...       0.00
freq.    1453.19  E(vib)   ...       0.00
freq.    1471.07  E(vib)   ...       0.00
freq.    1491.14  E(vib)   ...       0.00
freq.    1491.96  E(vib)   ...       0.00
freq.    1501.98  E(vib)   ...       0.00
freq.    1507.72  E(vib)   ...       0.00
freq.    1509.90  E(vib)   ...       0.00
freq.    1512.74  E(vib)   ...       0.00
freq.    1519.71  E(vib)   ...       0.00
freq.    1521.73  E(vib)   ...       0.00
freq.    1538.16  E(vib)   ...       0.00
freq.    1557.81  E(vib)   ...       0.00
freq.    1714.56  E(vib)   ...       0.00
freq.    1726.48  E(vib)   ...       0.00
freq.    3037.90  E(vib)   ...       0.00
freq.    3043.24  E(vib)   ...       0.00
freq.    3044.76  E(vib)   ...       0.00
freq.    3062.61  E(vib)   ...       0.00
freq.    3068.67  E(vib)   ...       0.00
freq.    3090.60  E(vib)   ...       0.00
freq.    3091.05  E(vib)   ...       0.00
freq.    3094.25  E(vib)   ...       0.00
freq.    3136.63  E(vib)   ...       0.00
freq.    3139.78  E(vib)   ...       0.00
freq.    3148.13  E(vib)   ...       0.00
freq.    3170.93  E(vib)   ...       0.00
freq.    3190.43  E(vib)   ...       0.00
freq.    3193.10  E(vib)   ...       0.00
freq.    3194.24  E(vib)   ...       0.00
freq.    3729.14  E(vib)   ...       0.00

------------
INNER ENERGY
------------

The inner energy is: U= E(el) + E(ZPE) + E(vib) + E(rot) + E(trans)
    E(el)   - is the total energy from the electronic structure calculation
              = E(kin-el) + E(nuc-el) + E(el-el) + E(nuc-nuc)
    E(ZPE)  - the the zero temperature vibrational energy from the frequency calculation
    E(vib)  - the the finite temperature correction to E(ZPE) due to population
              of excited vibrational states
    E(rot)  - is the rotational thermal energy
    E(trans)- is the translational thermal energy

Summary of contributions to the inner energy U:
Electronic energy                ...   -649.34670453 Eh
Zero point energy                ...      0.24809712 Eh     155.68 kcal/mol
Thermal vibrational correction   ...      0.01299890 Eh       8.16 kcal/mol
Thermal rotational correction    ...      0.00141627 Eh       0.89 kcal/mol
Thermal translational correction ...      0.00141627 Eh       0.89 kcal/mol
-----------------------------------------------------------------------
Total thermal energy                   -649.08277596 Eh

Summary of corrections to the electronic energy:
(perhaps to be used in another calculation)
Total thermal correction                  0.01583145 Eh       9.93 kcal/mol
Non-thermal (ZPE) correction              0.24809712 Eh     155.68 kcal/mol
-----------------------------------------------------------------------
Total correction                          0.26392856 Eh     165.62 kcal/mol

--------
ENTHALPY
--------

The enthalpy is H = U + kB*T
                kB is Boltzmann's constant
Total free energy                 ...   -649.08277596 Eh
Thermal Enthalpy correction       ...      0.00094421 Eh       0.59 kcal/mol
-----------------------------------------------------------------------
Total Enthalpy                    ...   -649.08183175 Eh

Note: Only C1 symmetry has been detected, increase convergence thresholds
      if your molecule has a higher symmetry. Symmetry factor of 1.0 is
      used for the rotational entropy correction.

Note: Rotational entropy computed according to Herzberg
Infrared and Raman Spectra, Chapter V,1, Van Nostrand Reinhold, 1945
Point Group:  C1, Symmetry Number:   1
Rotational constants in cm-1:     0.044090     0.015472     0.014420

Vibrational entropy computed according to the QRRHO of S. Grimme
Chem.Eur.J. 2012 18 9955

-------
ENTROPY
-------

The entropy contributions are T*S = T*(S(el)+S(vib)+S(rot)+S(trans))

                             ****ORCA TERMINATED NORMALLY****
TOTAL RUN TIME: 0 days 0 hours 28 minutes 6 seconds 644 msec
