                         Program Version 5.0.4 -  RELEASE  -
|  1> ! OPT FREQ B3LYP 6-31G(d) D4 AUTOAUX
|  2> ! CPCM
|  3>
|  4> %cpcm
|  5> epsilon 9.8629
|  6> refrac  1.4295
|  7> end
|  8>
|  9> %PAL NPROCS 4 END
| 10>
| 11> %maxcore 3375
| 12>
| 13> *xyzfile 0 1 /users/fjb15167/WWenergy/structures/Nfes.xyz
| 14>
| 15>                          ****END OF INPUT****
 Total Charge           Charge          ....    0
 Multiplicity           Mult            ....    1
 Number of Electrons    NEL             ....  134
Dispersion correction           -0.076937360
FINAL SINGLE POINT ENERGY      -805.078729491796
Dispersion correction            ... Starting D4
Dispersion correction           -0.075942399
FINAL SINGLE POINT ENERGY      -805.079113082501
Dispersion correction            ... Starting D4
Dispersion correction           -0.076448099
FINAL SINGLE POINT ENERGY      -805.079301646430
Dispersion correction            ... Starting D4
FINAL SINGLE POINT ENERGY      -805.079346817084
FINAL SINGLE POINT ENERGY      -805.079371851085
FINAL SINGLE POINT ENERGY      -805.079396992543
FINAL SINGLE POINT ENERGY      -805.079406265611
FINAL SINGLE POINT ENERGY      -805.079408137143
FINAL SINGLE POINT ENERGY      -805.079415746610
FINAL SINGLE POINT ENERGY      -805.079421123155
FINAL SINGLE POINT ENERGY      -805.079424445219
Dispersion correction           -0.076233717
FINAL SINGLE POINT ENERGY      -805.079427469531
Dispersion correction            ... Starting D4
Dispersion correction           -0.076221578
FINAL SINGLE POINT ENERGY      -805.079429529159
Dispersion correction            ... Starting D4
                    ***********************HURRAY********************

CARTESIAN COORDINATES (ANGSTROEM)
---------------------------------
  C     -2.445114    1.676669    1.052117
  H     -3.052568    1.824795    0.156433
  H     -2.622538    2.492150    1.756381
  H     -2.767284    0.743841    1.528566
  C     -0.950169    1.641671    0.777970
  N     -0.513003    1.064795   -0.384828
  C      0.876377    1.293486   -0.888185
  H      0.793465    1.117991   -1.964029
  C      1.884128    0.283455   -0.360437
  C      2.196871    0.187776    1.004002
  C      2.527988   -0.572841   -1.261686
  C      3.124015   -0.753715    1.450765
  H      1.694635    0.845050    1.704858
  C      3.460862   -1.513897   -0.816131
  H      2.296131   -0.504563   -2.322477
  C      3.758951   -1.608827    0.543767
  H      3.353106   -0.821382    2.511512
  H      3.948665   -2.171972   -1.530784
  H      4.480400   -2.341514    0.896186
  C     -1.420626    0.397934   -1.326350
  H     -1.999832    1.124862   -1.906091
  H     -0.797140   -0.155786   -2.035383
  C     -2.458067   -0.587899   -0.763309
  N     -2.046959   -1.567017    0.081690
  O     -3.635850   -0.463317   -1.119687
  O     -0.170358    2.129519    1.603872
  C     -0.657304   -1.860906    0.412691
  H     -0.352861   -1.387720    1.353729
  H     -0.551753   -2.945588    0.517493
  H      0.016429   -1.533303   -0.376037
  C     -3.042036   -2.430057    0.709472
  H     -2.976787   -3.449877    0.309276
  H     -2.864044   -2.467983    1.790468
  H     -4.035093   -2.028816    0.513035
  C      1.358130    2.744592   -0.741859
  H      2.267570    2.863457   -1.341232
  H      0.599534    3.436273   -1.125991
  H      1.579131    3.005666    0.292213

 Multiplicity           Mult            ....    1
 Number of Electrons    NEL             ....  134
 Basis Dimension        Dim             ....  292

ORBITAL ENERGIES
----------------

  NO   OCC          E(Eh)            E(eV)
   0   2.0000     -19.106780      -519.9219
   1   2.0000     -19.105729      -519.8933
   2   2.0000     -14.359962      -390.7544
   3   2.0000     -14.358790      -390.7226
   4   2.0000     -10.282141      -279.7913
   5   2.0000     -10.281577      -279.7759
   6   2.0000     -10.222211      -278.1605
   7   2.0000     -10.219995      -278.1002
   8   2.0000     -10.200555      -277.5712
   9   2.0000     -10.197475      -277.4874
  10   2.0000     -10.185252      -277.1548
  11   2.0000     -10.178832      -276.9801
  12   2.0000     -10.178234      -276.9638
  13   2.0000     -10.178047      -276.9587
  14   2.0000     -10.177570      -276.9457
  15   2.0000     -10.171857      -276.7903
  16   2.0000     -10.169784      -276.7339
  17   2.0000     -10.160723      -276.4873
  18   2.0000      -1.030965       -28.0540
  19   2.0000      -1.025046       -27.8929
  20   2.0000      -0.934298       -25.4235
  21   2.0000      -0.924973       -25.1698
  22   2.0000      -0.849035       -23.1034
  23   2.0000      -0.784419       -21.3451
  24   2.0000      -0.740190       -20.1416
  25   2.0000      -0.737282       -20.0625
  26   2.0000      -0.729223       -19.8432
  27   2.0000      -0.712048       -19.3758
  28   2.0000      -0.708383       -19.2761
  29   2.0000      -0.678316       -18.4579
  30   2.0000      -0.639248       -17.3948
  31   2.0000      -0.598107       -16.2753
  32   2.0000      -0.587812       -15.9952
  33   2.0000      -0.546839       -14.8803
  34   2.0000      -0.531610       -14.4658
  35   2.0000      -0.508177       -13.8282
  36   2.0000      -0.499661       -13.5965
  37   2.0000      -0.484569       -13.1858
  38   2.0000      -0.478242       -13.0136
  39   2.0000      -0.461538       -12.5591
  40   2.0000      -0.457587       -12.4516
  41   2.0000      -0.448833       -12.2134
  42   2.0000      -0.446339       -12.1455
  43   2.0000      -0.437509       -11.9052
  44   2.0000      -0.419348       -11.4110
  45   2.0000      -0.412587       -11.2271
  46   2.0000      -0.409817       -11.1517
  47   2.0000      -0.403229       -10.9724
  48   2.0000      -0.401296       -10.9198
  49   2.0000      -0.398331       -10.8391
  50   2.0000      -0.397477       -10.8159
  51   2.0000      -0.393118       -10.6973
  52   2.0000      -0.383182       -10.4269
  53   2.0000      -0.375991       -10.2312
  54   2.0000      -0.371868       -10.1191
  55   2.0000      -0.356649        -9.7049
  56   2.0000      -0.352573        -9.5940
  57   2.0000      -0.348695        -9.4885
  58   2.0000      -0.346813        -9.4373
  59   2.0000      -0.332835        -9.0569
  60   2.0000      -0.327349        -8.9076
  61   2.0000      -0.256008        -6.9663
  62   2.0000      -0.247319        -6.7299
  63   2.0000      -0.247019        -6.7217
  64   2.0000      -0.240640        -6.5481
  65   2.0000      -0.238165        -6.4808
  66   2.0000      -0.233660        -6.3582
  67   0.0000      -0.001639        -0.0446
  68   0.0000       0.002707         0.0737
  69   0.0000       0.017962         0.4888
  70   0.0000       0.023303         0.6341
  71   0.0000       0.087487         2.3806

MULLIKEN ATOMIC CHARGES
-----------------------
   0 C :   -0.565711
   1 H :    0.186922
   2 H :    0.182447
   3 H :    0.198742
   4 C :    0.540249
   5 N :   -0.385150
   6 C :   -0.064257
   7 H :    0.168860
   8 C :    0.156749
   9 C :   -0.189191
  10 C :   -0.206883
  11 C :   -0.152721
  12 H :    0.165063
  13 C :   -0.145979
  14 H :    0.147731
  15 C :   -0.146627
  16 H :    0.147598
  17 H :    0.148214
  18 H :    0.147684
  19 C :   -0.261902
  20 H :    0.190556
  21 H :    0.209481
  22 C :    0.522706
  23 N :   -0.358180
  24 O :   -0.541102
  25 O :   -0.525431
  26 C :   -0.334568
  27 H :    0.176987
  28 H :    0.175214
  29 H :    0.186140
  30 C :   -0.331026
  31 H :    0.172319
  32 H :    0.172653
  33 H :    0.186724
  34 C :   -0.460392
  35 H :    0.154860
  36 H :    0.153415
  37 H :    0.177808
Sum of atomic charges:   -0.0000000

LOEWDIN ATOMIC CHARGES
----------------------
   0 C :   -0.396668
   1 H :    0.148535
   2 H :    0.151884
   3 H :    0.159638
   4 C :    0.116659
   5 N :   -0.074686
   6 C :   -0.040927
   7 H :    0.141940
   8 C :   -0.026504
   9 C :   -0.138712
  10 C :   -0.144840
  11 C :   -0.137140
  12 H :    0.147224
  13 C :   -0.138259
  14 H :    0.137794
  15 C :   -0.139148
  16 H :    0.138601
  17 H :    0.139338
  18 H :    0.138864
  19 C :   -0.180103
  20 H :    0.147488
  21 H :    0.162481
  22 C :    0.094334
  23 N :   -0.069797
  24 O :   -0.334350
  25 O :   -0.323592
  26 C :   -0.278588
  27 H :    0.135064
  28 H :    0.139583
  29 H :    0.145481
  30 C :   -0.278341
  31 H :    0.134013
  32 H :    0.135558
  33 H :    0.148193
  34 C :   -0.365124
  35 H :    0.133893
  36 H :    0.131036
  37 H :    0.139180

  Mayer bond orders larger than 0.100000
B(  0-C ,  1-H ) :   0.9186 B(  0-C ,  2-H ) :   0.9354 B(  0-C ,  3-H ) :   0.9183
B(  0-C ,  4-C ) :   0.9937 B(  4-C ,  5-N ) :   1.1590 B(  4-C , 25-O ) :   1.7391
B(  5-N ,  6-C ) :   0.9070 B(  5-N , 19-C ) :   0.9233 B(  6-C ,  7-H ) :   0.9190
B(  6-C ,  8-C ) :   0.9476 B(  6-C , 34-C ) :   1.0067 B(  8-C ,  9-C ) :   1.4362
B(  8-C , 10-C ) :   1.4259 B(  9-C , 11-C ) :   1.4328 B(  9-C , 12-H ) :   0.8916
B( 10-C , 13-C ) :   1.4255 B( 10-C , 14-H ) :   0.9195 B( 11-C , 15-C ) :   1.4348
B( 11-C , 16-H ) :   0.9277 B( 13-C , 15-C ) :   1.4597 B( 13-C , 17-H ) :   0.9264
B( 15-C , 18-H ) :   0.9276 B( 19-C , 20-H ) :   0.9122 B( 19-C , 21-H ) :   0.9053
B( 19-C , 22-C ) :   0.9428 B( 22-C , 23-N ) :   1.1998 B( 22-C , 24-O ) :   1.7486
B( 23-N , 26-C ) :   0.9438 B( 23-N , 30-C ) :   0.9448 B( 26-C , 27-H ) :   0.9278
B( 26-C , 28-H ) :   0.9350 B( 26-C , 29-H ) :   0.9202 B( 30-C , 31-H ) :   0.9365
B( 30-C , 32-H ) :   0.9374 B( 30-C , 33-H ) :   0.9256 B( 34-C , 35-H ) :   0.9399
B( 34-C , 36-H ) :   0.9427 B( 34-C , 37-H ) :   0.9321

Dispersion correction           -0.076219547
FINAL SINGLE POINT ENERGY      -805.079431323936

DIPOLE MOMENT
-------------
                                X             Y             Z
Electronic contribution:      1.92893       1.14898      -1.15754
Nuclear contribution   :     -1.06863      -2.49039       0.55639
                        -----------------------------------------
Total Dipole Moment    :      0.86030      -1.34141      -0.60115
                        -----------------------------------------
Magnitude (a.u.)       :      1.70320
Magnitude (Debye)      :      4.32919

Dispersion correction in the Hessian             ... Starting D4

VIBRATIONAL FREQUENCIES
-----------------------

Scaling factor for frequencies =  1.000000000  (already applied!)

   0:         0.00 cm**-1
   1:         0.00 cm**-1
   2:         0.00 cm**-1
   3:         0.00 cm**-1
   4:         0.00 cm**-1
   5:         0.00 cm**-1
   6:        25.69 cm**-1
   7:        38.78 cm**-1
   8:        47.11 cm**-1
   9:        67.37 cm**-1
  10:        84.24 cm**-1
  11:        90.87 cm**-1
  12:       101.58 cm**-1
  13:       127.98 cm**-1
  14:       153.66 cm**-1
  15:       170.37 cm**-1
  16:       186.78 cm**-1
  17:       193.01 cm**-1
  18:       215.55 cm**-1
  19:       229.02 cm**-1
  20:       242.33 cm**-1
  21:       250.02 cm**-1
  22:       279.31 cm**-1
  23:       300.96 cm**-1
  24:       328.82 cm**-1
  25:       335.97 cm**-1
  26:       403.89 cm**-1
  27:       418.65 cm**-1
  28:       431.26 cm**-1
  29:       450.08 cm**-1
  30:       507.70 cm**-1
  31:       558.05 cm**-1
  32:       582.68 cm**-1
  33:       586.11 cm**-1
  34:       612.24 cm**-1
  35:       633.11 cm**-1
  36:       648.59 cm**-1
  37:       702.22 cm**-1
  38:       720.37 cm**-1
  39:       745.25 cm**-1
  40:       773.51 cm**-1
  41:       787.84 cm**-1
  42:       814.98 cm**-1
  43:       871.50 cm**-1
  44:       920.76 cm**-1
  45:       940.33 cm**-1
  46:       985.75 cm**-1
  47:       999.12 cm**-1
  48:      1005.33 cm**-1
  49:      1009.95 cm**-1
  50:      1013.97 cm**-1
  51:      1020.23 cm**-1
  52:      1054.50 cm**-1
  53:      1060.39 cm**-1
  54:      1067.47 cm**-1
  55:      1088.47 cm**-1
  56:      1092.70 cm**-1
  57:      1118.00 cm**-1
  58:      1135.33 cm**-1
  59:      1138.33 cm**-1
  60:      1175.33 cm**-1
  61:      1183.52 cm**-1
  62:      1195.95 cm**-1
  63:      1203.48 cm**-1
  64:      1207.89 cm**-1
  65:      1239.54 cm**-1
  66:      1291.87 cm**-1
  67:      1297.90 cm**-1
  68:      1323.06 cm**-1
  69:      1337.88 cm**-1
  70:      1363.73 cm**-1
  71:      1383.98 cm**-1
  72:      1400.42 cm**-1
  73:      1415.18 cm**-1
  74:      1421.99 cm**-1
  75:      1441.49 cm**-1
  76:      1458.32 cm**-1
  77:      1478.10 cm**-1
  78:      1486.49 cm**-1
  79:      1493.88 cm**-1
  80:      1500.03 cm**-1
  81:      1501.59 cm**-1
  82:      1504.63 cm**-1
  83:      1508.10 cm**-1
  84:      1515.33 cm**-1
  85:      1516.70 cm**-1
  86:      1520.37 cm**-1
  87:      1528.99 cm**-1
  88:      1541.37 cm**-1
  89:      1553.16 cm**-1
  90:      1639.67 cm**-1
  91:      1659.99 cm**-1
  92:      1713.13 cm**-1
  93:      1717.61 cm**-1
  94:      3043.94 cm**-1
  95:      3056.25 cm**-1
  96:      3057.78 cm**-1
  97:      3066.68 cm**-1
  98:      3070.44 cm**-1
  99:      3085.69 cm**-1
 100:      3098.09 cm**-1
 101:      3114.23 cm**-1
 102:      3116.41 cm**-1
 103:      3118.60 cm**-1
 104:      3140.84 cm**-1
 105:      3168.36 cm**-1
 106:      3178.00 cm**-1
 107:      3184.83 cm**-1
 108:      3186.08 cm**-1
 109:      3192.29 cm**-1
 110:      3195.71 cm**-1
 111:      3199.86 cm**-1
 112:      3208.26 cm**-1
 113:      3232.72 cm**-1

IR SPECTRUM
-----------

 Mode   freq       eps      Int      T**2         TX        TY        TZ
       cm**-1   L/(mol*cm) km/mol    a.u.
----------------------------------------------------------------------------
  6:     25.69   0.000629    3.18  0.007641  (-0.016236 -0.044995 -0.073165)
  7:     38.78   0.000014    0.07  0.000110  ( 0.007864 -0.001164 -0.006853)
  8:     47.11   0.000259    1.31  0.001715  ( 0.027742 -0.014649 -0.027035)
  9:     67.37   0.000682    3.45  0.003161  ( 0.019155  0.040195 -0.034326)
 10:     84.24   0.000317    1.60  0.001175  ( 0.018007  0.004129 -0.028868)
 11:     90.87   0.000237    1.20  0.000814  ( 0.003113 -0.027480  0.007000)
 12:    101.58   0.001726    8.72  0.005302  (-0.002201 -0.072527 -0.006058)
 13:    127.98   0.000873    4.41  0.002129  (-0.025730  0.032149 -0.020821)
 14:    153.66   0.001364    6.89  0.002770  (-0.021560  0.047737  0.005152)
 15:    170.37   0.000151    0.76  0.000276  (-0.009177 -0.011089  0.008288)
 16:    186.78   0.000155    0.78  0.000258  (-0.007804 -0.006909  0.012236)
 17:    193.01   0.001019    5.15  0.001648  (-0.028252  0.025473  0.014171)
 18:    215.55   0.000032    0.16  0.000047  ( 0.004003  0.005199  0.001956)
 19:    229.02   0.001229    6.21  0.001674  ( 0.018444 -0.015369 -0.033134)
 20:    242.33   0.001575    7.96  0.002028  (-0.008196 -0.037914 -0.022876)
 21:    250.02   0.000136    0.69  0.000170  ( 0.005357 -0.000193 -0.011874)
 22:    279.31   0.000656    3.32  0.000733  ( 0.011484  0.001314 -0.024481)
 23:    300.96   0.000782    3.95  0.000811  (-0.001341  0.020887 -0.019316)
 24:    328.82   0.000208    1.05  0.000197  ( 0.002737 -0.009970 -0.009497)
 25:    335.97   0.000652    3.30  0.000606  (-0.012529  0.017523 -0.011907)
 26:    403.89   0.002055   10.39  0.001588  (-0.007682 -0.028422  0.026857)
 27:    418.65   0.000092    0.47  0.000069  (-0.007700  0.002996 -0.000575)
 28:    431.26   0.001844    9.32  0.001334  ( 0.006588  0.035481 -0.005630)
 29:    450.08   0.001776    8.97  0.001231  ( 0.026776  0.008308 -0.021103)
 30:    507.70   0.003249   16.42  0.001997  ( 0.033908 -0.016244 -0.024156)
 31:    558.05   0.004620   23.35  0.002583  ( 0.028898  0.024129 -0.034148)
 32:    582.68   0.006790   34.32  0.003637  ( 0.036479  0.037151  0.030427)
 33:    586.11   0.001125    5.68  0.000599  (-0.021698  0.011200 -0.001585)
 34:    612.24   0.002504   12.66  0.001277  ( 0.007946 -0.031079  0.015732)
 35:    633.11   0.000523    2.64  0.000258  (-0.007721  0.014019  0.001252)
 36:    648.59   0.005590   28.25  0.002689  (-0.018561  0.048377 -0.002155)
 37:    702.22   0.000430    2.17  0.000191  (-0.008336 -0.000761 -0.011006)
 38:    720.37   0.012136   61.33  0.005257  ( 0.055220  0.046691 -0.005281)
 39:    745.25   0.001247    6.30  0.000522  ( 0.004252 -0.022315  0.002492)
 40:    773.51   0.005370   27.14  0.002166  (-0.011417  0.044380 -0.008147)
 41:    787.84   0.003857   19.49  0.001528  ( 0.037439  0.011218  0.000409)
 42:    814.98   0.000534    2.70  0.000204  (-0.013846  0.000548 -0.003529)
 43:    871.50   0.000025    0.12  0.000009  (-0.002137 -0.001725 -0.001133)
 44:    920.76   0.000283    1.43  0.000096  ( 0.009502  0.002070  0.001217)
 45:    940.33   0.001619    8.18  0.000537  (-0.020116 -0.011488 -0.000816)
 46:    985.75   0.000159    0.80  0.000050  ( 0.006870  0.001452  0.001038)
 47:    999.12   0.004803   24.27  0.001500  ( 0.023880 -0.030039 -0.005255)
 48:   1005.33   0.008640   43.66  0.002682  (-0.003748 -0.025169  0.045104)
 49:   1009.95   0.001156    5.84  0.000357  (-0.010403 -0.010911 -0.011397)
 50:   1013.97   0.001040    5.26  0.000320  (-0.001077 -0.017575  0.003164)
 51:   1020.23   0.002127   10.75  0.000651  ( 0.003773 -0.024741  0.004919)
 52:   1054.50   0.003100   15.66  0.000917  ( 0.028876  0.001982  0.008921)
 53:   1060.39   0.003015   15.24  0.000887  ( 0.004486 -0.027340  0.010942)
 54:   1067.47   0.000994    5.02  0.000291  ( 0.007208  0.000590  0.015438)
 55:   1088.47   0.001723    8.71  0.000494  ( 0.021933  0.003501 -0.000785)
 56:   1092.70   0.000755    3.82  0.000216  ( 0.002513 -0.003256  0.014098)
 57:   1118.00   0.002313   11.69  0.000646  (-0.008514  0.014820  0.018803)
 58:   1135.33   0.001554    7.85  0.000427  (-0.017832  0.004038 -0.009628)
 59:   1138.33   0.008868   44.81  0.002431  ( 0.047878  0.011316  0.003262)
 60:   1175.33   0.001561    7.89  0.000414  ( 0.017255 -0.010569  0.002211)
 61:   1183.52   0.000301    1.52  0.000079  ( 0.007846 -0.002301  0.003527)
 62:   1195.95   0.017339   87.62  0.004524  (-0.029358  0.048220 -0.036567)
 63:   1203.48   0.013849   69.99  0.003591  ( 0.055081  0.014503 -0.018622)
 64:   1207.89   0.000123    0.62  0.000032  ( 0.003129 -0.004057  0.002350)
 65:   1239.54   0.001653    8.35  0.000416  ( 0.009184 -0.007775  0.016470)
 66:   1291.87   0.009856   49.81  0.002381  (-0.009700 -0.047077  0.008394)
 67:   1297.90   0.007683   38.82  0.001847  (-0.042269 -0.003149  0.007112)
 68:   1323.06   0.013857   70.03  0.003268  ( 0.033577 -0.032758 -0.032679)
 69:   1337.88   0.042689  215.73  0.009957  ( 0.022730 -0.035369 -0.090497)
 70:   1363.73   0.000825    4.17  0.000189  ( 0.010602 -0.007290  0.004823)
 71:   1383.98   0.003529   17.83  0.000796  (-0.024435  0.006548  0.012482)
 72:   1400.42   0.006587   33.29  0.001468  ( 0.029165 -0.019383 -0.015539)
 73:   1415.18   0.008909   45.02  0.001965  (-0.032305  0.011304  0.028163)
 74:   1421.99   0.005143   25.99  0.001129  (-0.031418 -0.005776  0.010403)
 75:   1441.49   0.018456   93.27  0.003996  (-0.020145  0.051679 -0.030315)
 76:   1458.32   0.013158   66.49  0.002816  ( 0.012519  0.037601 -0.035286)
 77:   1478.10   0.009205   46.52  0.001943  ( 0.005438  0.029160  0.032613)
 78:   1486.49   0.006050   30.58  0.001270  ( 0.013427 -0.023015 -0.023668)
 79:   1493.88   0.001546    7.81  0.000323  (-0.017177 -0.005022 -0.001616)
 80:   1500.03   0.000979    4.95  0.000204  (-0.008612  0.002761  0.011039)
 81:   1501.59   0.003383   17.10  0.000703  ( 0.006054  0.015355  0.020752)
 82:   1504.63   0.003848   19.45  0.000798  (-0.017821 -0.007948  0.020431)
 83:   1508.10   0.004410   22.29  0.000913  (-0.013415  0.026534 -0.005346)
 84:   1515.33   0.003310   16.73  0.000682  (-0.021434 -0.009878 -0.011170)
 85:   1516.70   0.003036   15.34  0.000625  (-0.003825 -0.021352 -0.012412)
 86:   1520.37   0.000349    1.76  0.000072  (-0.002205  0.000326  0.008160)
 87:   1528.99   0.014517   73.36  0.002963  (-0.036339  0.007716  0.039785)
 88:   1541.37   0.004794   24.23  0.000971  ( 0.025320 -0.017023  0.006308)
 89:   1553.16   0.014385   72.70  0.002890  ( 0.012306  0.044873 -0.026931)
 90:   1639.67   0.000707    3.57  0.000134  ( 0.004991  0.004007  0.009669)
 91:   1659.99   0.000843    4.26  0.000158  ( 0.011097 -0.004120  0.004280)
 92:   1713.13   0.122411  618.61  0.022298  (-0.091545 -0.038904 -0.111375)
 93:   1717.61   0.080505  406.84  0.014627  (-0.090822  0.073642 -0.030899)
 94:   3043.94   0.010411   52.61  0.001067  ( 0.014875  0.027165 -0.010397)
 95:   3056.25   0.011237   56.79  0.001147  ( 0.019946 -0.017836  0.020771)
 96:   3057.78   0.006352   32.10  0.000648  ( 0.003639  0.023114 -0.010038)
 97:   3066.68   0.003190   16.12  0.000325  (-0.012243  0.000489 -0.013208)
 98:   3070.44   0.000624    3.15  0.000063  ( 0.006684  0.000081 -0.004330)
 99:   3085.69   0.008043   40.65  0.000813  ( 0.009246 -0.006003  0.026304)
100:   3098.09   0.009417   47.59  0.000949  (-0.000845 -0.017491 -0.025337)
101:   3114.23   0.005906   29.85  0.000592  ( 0.003509  0.023133  0.006660)
102:   3116.41   0.000787    3.98  0.000079  ( 0.005160 -0.007148  0.001024)
103:   3118.60   0.009737   49.21  0.000974  (-0.028689  0.011730  0.003701)
104:   3140.84   0.002160   10.92  0.000215  ( 0.006062 -0.013096  0.002525)
105:   3168.36   0.002161   10.92  0.000213  (-0.003294 -0.006606 -0.012584)
106:   3178.00   0.002121   10.72  0.000208  (-0.006194  0.004861 -0.012093)
107:   3184.83   0.002633   13.31  0.000258  (-0.002554 -0.000643 -0.015846)
108:   3186.08   0.000750    3.79  0.000073  ( 0.005567 -0.006228  0.001906)
109:   3192.29   0.000905    4.57  0.000088  ( 0.009268 -0.001609 -0.000090)
110:   3195.71   0.009128   46.13  0.000891  (-0.002078 -0.002495 -0.029678)
111:   3199.86   0.001673    8.45  0.000163  (-0.002486 -0.002996  0.012166)
112:   3208.26   0.006171   31.19  0.000600  (-0.017395  0.017253  0.000137)
113:   3232.72   0.001739    8.79  0.000168  (-0.010742  0.005456 -0.004766)

--------------------------
THERMOCHEMISTRY AT 298.15K
--------------------------

Temperature         ... 298.15 K
Pressure            ... 1.00 atm
Total Mass          ... 248.33 AMU

Throughout the following assumptions are being made:
  (1) The electronic state is orbitally nondegenerate
  (2) There are no thermally accessible electronically excited states
  (3) Hindered rotations indicated by low frequency modes are not
      treated as such but are treated as vibrations and this may
      cause some error
  (4) All equations used are the standard statistical mechanics
      equations for an ideal gas
  (5) All vibrations are strictly harmonic

freq.      25.69  E(vib)   ...       0.56
freq.      38.78  E(vib)   ...       0.54
freq.      47.11  E(vib)   ...       0.53
freq.      67.37  E(vib)   ...       0.50
freq.      84.24  E(vib)   ...       0.48
freq.      90.87  E(vib)   ...       0.47
freq.     101.58  E(vib)   ...       0.46
freq.     127.98  E(vib)   ...       0.43
freq.     153.66  E(vib)   ...       0.40
freq.     170.37  E(vib)   ...       0.38
freq.     186.78  E(vib)   ...       0.37
freq.     193.01  E(vib)   ...       0.36
freq.     215.55  E(vib)   ...       0.34
freq.     229.02  E(vib)   ...       0.32
freq.     242.33  E(vib)   ...       0.31
freq.     250.02  E(vib)   ...       0.31
freq.     279.31  E(vib)   ...       0.28
freq.     300.96  E(vib)   ...       0.26
freq.     328.82  E(vib)   ...       0.24
freq.     335.97  E(vib)   ...       0.24
freq.     403.89  E(vib)   ...       0.19
freq.     418.65  E(vib)   ...       0.18
freq.     431.26  E(vib)   ...       0.18
freq.     450.08  E(vib)   ...       0.17
freq.     507.70  E(vib)   ...       0.14
freq.     558.05  E(vib)   ...       0.12
freq.     582.68  E(vib)   ...       0.11
freq.     586.11  E(vib)   ...       0.11
freq.     612.24  E(vib)   ...       0.10
freq.     633.11  E(vib)   ...       0.09
freq.     648.59  E(vib)   ...       0.08
freq.     702.22  E(vib)   ...       0.07
freq.     720.37  E(vib)   ...       0.07
freq.     745.25  E(vib)   ...       0.06
freq.     773.51  E(vib)   ...       0.05
freq.     787.84  E(vib)   ...       0.05
freq.     814.98  E(vib)   ...       0.05
freq.     871.50  E(vib)   ...       0.04
freq.     920.76  E(vib)   ...       0.03
freq.     940.33  E(vib)   ...       0.03
freq.     985.75  E(vib)   ...       0.02
freq.     999.12  E(vib)   ...       0.02
freq.    1005.33  E(vib)   ...       0.02
freq.    1009.95  E(vib)   ...       0.02
freq.    1013.97  E(vib)   ...       0.02
freq.    1020.23  E(vib)   ...       0.02
freq.    1054.50  E(vib)   ...       0.02
freq.    1060.39  E(vib)   ...       0.02
freq.    1067.47  E(vib)   ...       0.02
freq.    1088.47  E(vib)   ...       0.02
freq.    1092.70  E(vib)   ...       0.02
freq.    1118.00  E(vib)   ...       0.01
freq.    1135.33  E(vib)   ...       0.01
freq.    1138.33  E(vib)   ...       0.01
freq.    1175.33  E(vib)   ...       0.01
freq.    1183.52  E(vib)   ...       0.01
freq.    1195.95  E(vib)   ...       0.01
freq.    1203.48  E(vib)   ...       0.01
freq.    1207.89  E(vib)   ...       0.01
freq.    1239.54  E(vib)   ...       0.01
freq.    1291.87  E(vib)   ...       0.01
freq.    1297.90  E(vib)   ...       0.01
freq.    1323.06  E(vib)   ...       0.01
freq.    1337.88  E(vib)   ...       0.01
freq.    1363.73  E(vib)   ...       0.01
freq.    1383.98  E(vib)   ...       0.00
freq.    1400.42  E(vib)   ...       0.00
freq.    1415.18  E(vib)   ...       0.00
freq.    1421.99  E(vib)   ...       0.00
freq.    1441.49  E(vib)   ...       0.00
freq.    1458.32  E(vib)   ...       0.00
freq.    1478.10  E(vib)   ...       0.00
freq.    1486.49  E(vib)   ...       0.00
freq.    1493.88  E(vib)   ...       0.00
freq.    1500.03  E(vib)   ...       0.00
freq.    1501.59  E(vib)   ...       0.00
freq.    1504.63  E(vib)   ...       0.00
freq.    1508.10  E(vib)   ...       0.00
freq.    1515.33  E(vib)   ...       0.00
freq.    1516.70  E(vib)   ...       0.00
freq.    1520.37  E(vib)   ...       0.00
freq.    1528.99  E(vib)   ...       0.00
freq.    1541.37  E(vib)   ...       0.00
freq.    1553.16  E(vib)   ...       0.00
freq.    1639.67  E(vib)   ...       0.00
freq.    1659.99  E(vib)   ...       0.00
freq.    1713.13  E(vib)   ...       0.00
freq.    1717.61  E(vib)   ...       0.00
freq.    3043.94  E(vib)   ...       0.00
freq.    3056.25  E(vib)   ...       0.00
freq.    3057.78  E(vib)   ...       0.00
freq.    3066.68  E(vib)   ...       0.00
freq.    3070.44  E(vib)   ...       0.00
freq.    3085.69  E(vib)   ...       0.00
freq.    3098.09  E(vib)   ...       0.00
freq.    3114.23  E(vib)   ...       0.00
freq.    3116.41  E(vib)   ...       0.00
freq.    3118.60  E(vib)   ...       0.00
freq.    3140.84  E(vib)   ...       0.00
freq.    3168.36  E(vib)   ...       0.00
freq.    3178.00  E(vib)   ...       0.00
freq.    3184.83  E(vib)   ...       0.00
freq.    3186.08  E(vib)   ...       0.00
freq.    3192.29  E(vib)   ...       0.00
freq.    3195.71  E(vib)   ...       0.00
freq.    3199.86  E(vib)   ...       0.00
freq.    3208.26  E(vib)   ...       0.00
freq.    3232.72  E(vib)   ...       0.00

------------
INNER ENERGY
------------

The inner energy is: U= E(el) + E(ZPE) + E(vib) + E(rot) + E(trans)
    E(el)   - is the total energy from the electronic structure calculation
              = E(kin-el) + E(nuc-el) + E(el-el) + E(nuc-nuc)
    E(ZPE)  - the the zero temperature vibrational energy from the frequency calculation
    E(vib)  - the the finite temperature correction to E(ZPE) due to population
              of excited vibrational states
    E(rot)  - is the rotational thermal energy
    E(trans)- is the translational thermal energy

Summary of contributions to the inner energy U:
Electronic energy                ...   -805.07943132 Eh
Zero point energy                ...      0.32533106 Eh     204.15 kcal/mol
Thermal vibrational correction   ...      0.01609124 Eh      10.10 kcal/mol
Thermal rotational correction    ...      0.00141627 Eh       0.89 kcal/mol
Thermal translational correction ...      0.00141627 Eh       0.89 kcal/mol
-----------------------------------------------------------------------
Total thermal energy                   -804.73517648 Eh

Summary of corrections to the electronic energy:
(perhaps to be used in another calculation)
Total thermal correction                  0.01892378 Eh      11.87 kcal/mol
Non-thermal (ZPE) correction              0.32533106 Eh     204.15 kcal/mol
-----------------------------------------------------------------------
Total correction                          0.34425484 Eh     216.02 kcal/mol

--------
ENTHALPY
--------

Rotational constants in cm-1:     0.020290     0.010627     0.008784

                             ****ORCA TERMINATED NORMALLY****
TOTAL RUN TIME: 0 days 0 hours 46 minutes 44 seconds 429 msec
