                         Program Version 5.0.4 -  RELEASE  -
|  1> ! OPT FREQ B3LYP 6-31G(d) D4 AUTOAUX CPCM(water)
|  2>
|  3> %PAL NPROCS 4 END
|  4>
|  5> %maxcore 3375
|  6>
|  7> *xyzfile 0 1 /users/fjb15167/WWenergy/structures/Nfes.xyz
|  8>
|  9>                          ****END OF INPUT****
 Total Charge           Charge          ....    0
 Multiplicity           Mult            ....    1
 Number of Electrons    NEL             ....  134
Dispersion correction           -0.076937360
FINAL SINGLE POINT ENERGY      -805.080546576799
Dispersion correction            ... Starting D4
Dispersion correction           -0.075908130
FINAL SINGLE POINT ENERGY      -805.080973423268
Dispersion correction            ... Starting D4
Dispersion correction           -0.076415900
FINAL SINGLE POINT ENERGY      -805.081181541925
Dispersion correction            ... Starting D4
FINAL SINGLE POINT ENERGY      -805.081230771181
FINAL SINGLE POINT ENERGY      -805.081261285510
FINAL SINGLE POINT ENERGY      -805.081288999952
FINAL SINGLE POINT ENERGY      -805.081300392539
FINAL SINGLE POINT ENERGY      -805.081304661724
FINAL SINGLE POINT ENERGY      -805.081314668796
FINAL SINGLE POINT ENERGY      -805.081321892432
FINAL SINGLE POINT ENERGY      -805.081325944277
FINAL SINGLE POINT ENERGY      -805.081329738118
FINAL SINGLE POINT ENERGY      -805.081332602338
FINAL SINGLE POINT ENERGY      -805.081334950963
Dispersion correction           -0.076167815
FINAL SINGLE POINT ENERGY      -805.081337125502
Dispersion correction            ... Starting D4
Dispersion correction           -0.076168296
FINAL SINGLE POINT ENERGY      -805.081338319621
Dispersion correction            ... Starting D4
                    ***********************HURRAY********************

CARTESIAN COORDINATES (ANGSTROEM)
---------------------------------
  C     -2.443782    1.678868    1.054566
  H     -3.053473    1.823991    0.160004
  H     -2.621875    2.496140    1.756629
  H     -2.762030    0.746304    1.534182
  C     -0.949524    1.645607    0.777490
  N     -0.513621    1.065672   -0.383200
  C      0.875854    1.290221   -0.888446
  H      0.791877    1.109119   -1.963079
  C      1.883681    0.282193   -0.357085
  C      2.194293    0.186550    1.007862
  C      2.531954   -0.571866   -1.257584
  C      3.123261   -0.752717    1.455998
  H      1.689259    0.842018    1.708357
  C      3.466744   -1.510411   -0.810814
  H      2.301232   -0.503969   -2.318608
  C      3.762574   -1.605331    0.549788
  H      3.350366   -0.820653    2.517203
  H      3.957523   -2.166767   -1.525034
  H      4.485263   -2.336310    0.903229
  C     -1.424368    0.400486   -1.323679
  H     -2.004116    1.130047   -1.899307
  H     -0.802875   -0.151445   -2.035749
  C     -2.459934   -0.586996   -0.761224
  N     -2.048425   -1.567004    0.080851
  O     -3.639158   -0.462248   -1.116467
  O     -0.169193    2.138530    1.601201
  C     -0.657943   -1.865681    0.405115
  H     -0.351570   -1.400233    1.349262
  H     -0.554236   -2.951281    0.500969
  H      0.013077   -1.532827   -0.383573
  C     -3.043084   -2.431249    0.708607
  H     -2.999845   -3.442750    0.285152
  H     -2.843462   -2.494538    1.784231
  H     -4.034662   -2.013257    0.541772
  C      1.358623    2.741870   -0.750245
  H      2.263937    2.858694   -1.356174
  H      0.597632    3.432283   -1.131712
  H      1.587025    3.005940    0.281513

 Multiplicity           Mult            ....    1
 Number of Electrons    NEL             ....  134
 Basis Dimension        Dim             ....  292

ORBITAL ENERGIES
----------------

  NO   OCC          E(Eh)            E(eV)
   0   2.0000     -19.107034      -519.9288
   1   2.0000     -19.106279      -519.9083
   2   2.0000     -14.359715      -390.7477
   3   2.0000     -14.358838      -390.7238
   4   2.0000     -10.282077      -279.7895
   5   2.0000     -10.281950      -279.7861
   6   2.0000     -10.221413      -278.1388
   7   2.0000     -10.219073      -278.0751
   8   2.0000     -10.199373      -277.5390
   9   2.0000     -10.196608      -277.4638
  10   2.0000     -10.184817      -277.1430
  11   2.0000     -10.178094      -276.9600
  12   2.0000     -10.177537      -276.9449
  13   2.0000     -10.177326      -276.9391
  14   2.0000     -10.177090      -276.9327
  15   2.0000     -10.171720      -276.7866
  16   2.0000     -10.169836      -276.7353
  17   2.0000     -10.160495      -276.4811
  18   2.0000      -1.030874       -28.0515
  19   2.0000      -1.025111       -27.8947
  20   2.0000      -0.934016       -25.4159
  21   2.0000      -0.924663       -25.1613
  22   2.0000      -0.848531       -23.0897
  23   2.0000      -0.783955       -21.3325
  24   2.0000      -0.739809       -20.1312
  25   2.0000      -0.736770       -20.0485
  26   2.0000      -0.728978       -19.8365
  27   2.0000      -0.711263       -19.3545
  28   2.0000      -0.708013       -19.2660
  29   2.0000      -0.677868       -18.4457
  30   2.0000      -0.638887       -17.3850
  31   2.0000      -0.597475       -16.2581
  32   2.0000      -0.587388       -15.9836
  33   2.0000      -0.546315       -14.8660
  34   2.0000      -0.530998       -14.4492
  35   2.0000      -0.507675       -13.8145
  36   2.0000      -0.499435       -13.5903
  37   2.0000      -0.483874       -13.1669
  38   2.0000      -0.477792       -13.0014
  39   2.0000      -0.460986       -12.5441
  40   2.0000      -0.456928       -12.4336
  41   2.0000      -0.448803       -12.2126
  42   2.0000      -0.445998       -12.1362
  43   2.0000      -0.436913       -11.8890
  44   2.0000      -0.419000       -11.4016
  45   2.0000      -0.412030       -11.2119
  46   2.0000      -0.409396       -11.1402
  47   2.0000      -0.403097       -10.9688
  48   2.0000      -0.401126       -10.9152
  49   2.0000      -0.397916       -10.8278
  50   2.0000      -0.396687       -10.7944
  51   2.0000      -0.392748       -10.6872
  52   2.0000      -0.382877       -10.4186
  53   2.0000      -0.375309       -10.2127
  54   2.0000      -0.371540       -10.1101
  55   2.0000      -0.356298        -9.6954
  56   2.0000      -0.352265        -9.5856
  57   2.0000      -0.348208        -9.4752
  58   2.0000      -0.346736        -9.4352
  59   2.0000      -0.332448        -9.0464
  60   2.0000      -0.326833        -8.8936
  61   2.0000      -0.256264        -6.9733
  62   2.0000      -0.247658        -6.7391
  63   2.0000      -0.246782        -6.7153
  64   2.0000      -0.240761        -6.5514
  65   2.0000      -0.237965        -6.4754
  66   2.0000      -0.233579        -6.3560
  67   0.0000      -0.001295        -0.0352
  68   0.0000       0.003167         0.0862
  69   0.0000       0.018074         0.4918
  70   0.0000       0.023114         0.6290
  71   0.0000       0.088751         2.4150

MULLIKEN ATOMIC CHARGES
-----------------------
   0 C :   -0.566701
   1 H :    0.187156
   2 H :    0.181896
   3 H :    0.200566
   4 C :    0.541183
   5 N :   -0.384799
   6 C :   -0.064239
   7 H :    0.173278
   8 C :    0.155616
   9 C :   -0.189803
  10 C :   -0.207157
  11 C :   -0.154628
  12 H :    0.162178
  13 C :   -0.148058
  14 H :    0.151430
  15 C :   -0.148732
  16 H :    0.149059
  17 H :    0.150552
  18 H :    0.149748
  19 C :   -0.263168
  20 H :    0.191235
  21 H :    0.214235
  22 C :    0.523385
  23 N :   -0.356925
  24 O :   -0.548784
  25 O :   -0.531586
  26 C :   -0.335863
  27 H :    0.177172
  28 H :    0.177755
  29 H :    0.187431
  30 C :   -0.331297
  31 H :    0.174334
  32 H :    0.175151
  33 H :    0.184156
  34 C :   -0.461132
  35 H :    0.156218
  36 H :    0.154738
  37 H :    0.174398
Sum of atomic charges:    0.0000000

LOEWDIN ATOMIC CHARGES
----------------------
   0 C :   -0.397009
   1 H :    0.148670
   2 H :    0.151600
   3 H :    0.160504
   4 C :    0.117055
   5 N :   -0.073115
   6 C :   -0.041034
   7 H :    0.144127
   8 C :   -0.026573
   9 C :   -0.139958
  10 C :   -0.144236
  11 C :   -0.138288
  12 H :    0.146035
  13 C :   -0.138744
  14 H :    0.139521
  15 C :   -0.139992
  16 H :    0.139165
  17 H :    0.140349
  18 H :    0.139724
  19 C :   -0.180130
  20 H :    0.148014
  21 H :    0.164873
  22 C :    0.094639
  23 N :   -0.067955
  24 O :   -0.340982
  25 O :   -0.329082
  26 C :   -0.278612
  27 H :    0.135314
  28 H :    0.140856
  29 H :    0.146032
  30 C :   -0.278153
  31 H :    0.134993
  32 H :    0.137174
  33 H :    0.146886
  34 C :   -0.365274
  35 H :    0.134489
  36 H :    0.131621
  37 H :    0.137499

  Mayer bond orders larger than 0.100000
B(  0-C ,  1-H ) :   0.9183 B(  0-C ,  2-H ) :   0.9354 B(  0-C ,  3-H ) :   0.9176
B(  0-C ,  4-C ) :   0.9946 B(  4-C ,  5-N ) :   1.1639 B(  4-C , 25-O ) :   1.7333
B(  5-N ,  6-C ) :   0.9062 B(  5-N , 19-C ) :   0.9225 B(  6-C ,  7-H ) :   0.9180
B(  6-C ,  8-C ) :   0.9475 B(  6-C , 34-C ) :   1.0064 B(  8-C ,  9-C ) :   1.4363
B(  8-C , 10-C ) :   1.4260 B(  9-C , 11-C ) :   1.4322 B(  9-C , 12-H ) :   0.8923
B( 10-C , 13-C ) :   1.4255 B( 10-C , 14-H ) :   0.9189 B( 11-C , 15-C ) :   1.4350
B( 11-C , 16-H ) :   0.9274 B( 13-C , 15-C ) :   1.4588 B( 13-C , 17-H ) :   0.9260
B( 15-C , 18-H ) :   0.9272 B( 19-C , 20-H ) :   0.9120 B( 19-C , 21-H ) :   0.9038
B( 19-C , 22-C ) :   0.9437 B( 22-C , 23-N ) :   1.2056 B( 22-C , 24-O ) :   1.7415
B( 23-N , 26-C ) :   0.9432 B( 23-N , 30-C ) :   0.9438 B( 26-C , 27-H ) :   0.9279
B( 26-C , 28-H ) :   0.9345 B( 26-C , 29-H ) :   0.9199 B( 30-C , 31-H ) :   0.9360
B( 30-C , 32-H ) :   0.9369 B( 30-C , 33-H ) :   0.9267 B( 34-C , 35-H ) :   0.9398
B( 34-C , 36-H ) :   0.9426 B( 34-C , 37-H ) :   0.9331

Dispersion correction           -0.076174822
FINAL SINGLE POINT ENERGY      -805.081339707905

DIPOLE MOMENT
-------------
                                X             Y             Z
Electronic contribution:      1.95613       1.11466      -1.17217
Nuclear contribution   :     -1.06792      -2.52012       0.52271
                        -----------------------------------------
Total Dipole Moment    :      0.88821      -1.40546      -0.64946
                        -----------------------------------------
Magnitude (a.u.)       :      1.78494
Magnitude (Debye)      :      4.53696

Dispersion correction in the Hessian             ... Starting D4

VIBRATIONAL FREQUENCIES
-----------------------

Scaling factor for frequencies =  1.000000000  (already applied!)

   0:         0.00 cm**-1
   1:         0.00 cm**-1
   2:         0.00 cm**-1
   3:         0.00 cm**-1
   4:         0.00 cm**-1
   5:         0.00 cm**-1
   6:        24.94 cm**-1
   7:        36.86 cm**-1
   8:        46.70 cm**-1
   9:        66.57 cm**-1
  10:        82.38 cm**-1
  11:        88.60 cm**-1
  12:       101.39 cm**-1
  13:       127.53 cm**-1
  14:       152.49 cm**-1
  15:       170.15 cm**-1
  16:       186.15 cm**-1
  17:       192.84 cm**-1
  18:       215.67 cm**-1
  19:       228.98 cm**-1
  20:       242.77 cm**-1
  21:       250.02 cm**-1
  22:       278.44 cm**-1
  23:       301.64 cm**-1
  24:       329.03 cm**-1
  25:       336.57 cm**-1
  26:       403.81 cm**-1
  27:       418.41 cm**-1
  28:       431.26 cm**-1
  29:       449.77 cm**-1
  30:       507.98 cm**-1
  31:       558.03 cm**-1
  32:       583.19 cm**-1
  33:       586.06 cm**-1
  34:       612.64 cm**-1
  35:       632.92 cm**-1
  36:       648.45 cm**-1
  37:       702.36 cm**-1
  38:       720.02 cm**-1
  39:       745.23 cm**-1
  40:       773.41 cm**-1
  41:       787.72 cm**-1
  42:       815.34 cm**-1
  43:       871.44 cm**-1
  44:       920.85 cm**-1
  45:       940.74 cm**-1
  46:       986.16 cm**-1
  47:       999.00 cm**-1
  48:      1005.24 cm**-1
  49:      1009.52 cm**-1
  50:      1013.64 cm**-1
  51:      1019.66 cm**-1
  52:      1054.19 cm**-1
  53:      1060.23 cm**-1
  54:      1067.23 cm**-1
  55:      1088.01 cm**-1
  56:      1092.39 cm**-1
  57:      1117.38 cm**-1
  58:      1135.10 cm**-1
  59:      1137.72 cm**-1
  60:      1174.73 cm**-1
  61:      1182.45 cm**-1
  62:      1196.17 cm**-1
  63:      1202.95 cm**-1
  64:      1206.74 cm**-1
  65:      1239.32 cm**-1
  66:      1291.85 cm**-1
  67:      1298.54 cm**-1
  68:      1322.82 cm**-1
  69:      1338.09 cm**-1
  70:      1363.19 cm**-1
  71:      1384.23 cm**-1
  72:      1400.97 cm**-1
  73:      1414.22 cm**-1
  74:      1420.71 cm**-1
  75:      1441.15 cm**-1
  76:      1458.65 cm**-1
  77:      1477.71 cm**-1
  78:      1485.57 cm**-1
  79:      1492.96 cm**-1
  80:      1499.22 cm**-1
  81:      1500.52 cm**-1
  82:      1502.79 cm**-1
  83:      1506.77 cm**-1
  84:      1514.20 cm**-1
  85:      1515.28 cm**-1
  86:      1519.24 cm**-1
  87:      1528.86 cm**-1
  88:      1540.98 cm**-1
  89:      1552.47 cm**-1
  90:      1639.18 cm**-1
  91:      1659.50 cm**-1
  92:      1708.13 cm**-1
  93:      1712.38 cm**-1
  94:      3045.74 cm**-1
  95:      3057.19 cm**-1
  96:      3058.19 cm**-1
  97:      3068.18 cm**-1
  98:      3070.43 cm**-1
  99:      3088.31 cm**-1
 100:      3101.63 cm**-1
 101:      3115.78 cm**-1
 102:      3118.35 cm**-1
 103:      3119.18 cm**-1
 104:      3141.22 cm**-1
 105:      3168.27 cm**-1
 106:      3179.01 cm**-1
 107:      3183.54 cm**-1
 108:      3186.24 cm**-1
 109:      3191.71 cm**-1
 110:      3195.82 cm**-1
 111:      3201.52 cm**-1
 112:      3208.34 cm**-1
 113:      3232.56 cm**-1

IR SPECTRUM
-----------

 Mode   freq       eps      Int      T**2         TX        TY        TZ
       cm**-1   L/(mol*cm) km/mol    a.u.
----------------------------------------------------------------------------
  6:     24.94   0.000690    3.49  0.008629  (-0.016510 -0.047844 -0.077896)
  7:     36.86   0.000025    0.13  0.000214  ( 0.007233 -0.001534 -0.012604)
  8:     46.70   0.000272    1.37  0.001816  ( 0.029474 -0.014324 -0.027235)
  9:     66.57   0.000681    3.44  0.003194  ( 0.018856  0.039824 -0.035386)
 10:     82.38   0.000408    2.06  0.001545  ( 0.017166  0.012767 -0.032979)
 11:     88.60   0.000226    1.14  0.000797  ( 0.007987 -0.027069 -0.000820)
 12:    101.39   0.001859    9.39  0.005722  (-0.002033 -0.075420 -0.005419)
 13:    127.53   0.000952    4.81  0.002329  (-0.026170  0.033881 -0.022282)
 14:    152.49   0.001466    7.41  0.002999  (-0.022720  0.049530  0.005443)
 15:    170.15   0.000152    0.77  0.000279  (-0.009319 -0.011233  0.008120)
 16:    186.15   0.000182    0.92  0.000305  (-0.007958 -0.007708  0.013517)
 17:    192.84   0.001123    5.68  0.001818  (-0.029440  0.027057  0.014803)
 18:    215.67   0.000036    0.18  0.000053  ( 0.003960  0.005411  0.002755)
 19:    228.98   0.001312    6.63  0.001787  ( 0.019104 -0.015775 -0.034257)
 20:    242.77   0.001690    8.54  0.002173  (-0.008554 -0.038757 -0.024442)
 21:    250.02   0.000156    0.79  0.000194  ( 0.005082 -0.000993 -0.012934)
 22:    278.44   0.000692    3.50  0.000776  ( 0.011340  0.000644 -0.025438)
 23:    301.64   0.000855    4.32  0.000884  (-0.001169  0.021918 -0.020061)
 24:    329.03   0.000231    1.16  0.000219  ( 0.003579 -0.010915 -0.009310)
 25:    336.57   0.000710    3.59  0.000658  (-0.012970  0.017887 -0.013036)
 26:    403.81   0.002236   11.30  0.001728  (-0.007558 -0.029485  0.028307)
 27:    418.41   0.000095    0.48  0.000071  (-0.007761  0.003265 -0.000479)
 28:    431.26   0.001902    9.61  0.001376  ( 0.006554  0.036089 -0.005575)
 29:    449.77   0.001888    9.54  0.001310  ( 0.027561  0.007951 -0.022064)
 30:    507.98   0.003509   17.73  0.002155  ( 0.035034 -0.016739 -0.025452)
 31:    558.03   0.004950   25.01  0.002768  ( 0.029747  0.025477 -0.035129)
 32:    583.19   0.007148   36.12  0.003825  ( 0.036533  0.038113  0.032212)
 33:    586.06   0.001247    6.30  0.000664  (-0.023303  0.010605 -0.002922)
 34:    612.64   0.002658   13.43  0.001354  ( 0.008352 -0.031764  0.016591)
 35:    632.92   0.000575    2.91  0.000284  (-0.007872  0.014807  0.001532)
 36:    648.45   0.006092   30.79  0.002932  (-0.019205  0.050560 -0.002601)
 37:    702.36   0.000441    2.23  0.000196  (-0.008444 -0.000214 -0.011166)
 38:    720.02   0.012698   64.17  0.005504  ( 0.056272  0.048056 -0.005254)
 39:    745.23   0.001355    6.85  0.000567  ( 0.004011 -0.023322  0.002737)
 40:    773.41   0.005718   28.89  0.002307  (-0.011763  0.045745 -0.008718)
 41:    787.72   0.004020   20.31  0.001592  ( 0.038159  0.011658  0.000684)
 42:    815.34   0.000590    2.98  0.000226  (-0.014476  0.000598 -0.003971)
 43:    871.44   0.000019    0.10  0.000007  (-0.001889 -0.001624 -0.000853)
 44:    920.85   0.000304    1.53  0.000103  ( 0.009802  0.002138  0.001502)
 45:    940.74   0.001703    8.61  0.000565  (-0.020427 -0.012110 -0.000971)
 46:    986.16   0.000153    0.77  0.000048  ( 0.006764  0.001311  0.000909)
 47:    999.00   0.005115   25.85  0.001598  ( 0.024945 -0.030621 -0.006164)
 48:   1005.24   0.009123   46.10  0.002832  (-0.003140 -0.025784  0.046447)
 49:   1009.52   0.001178    5.95  0.000364  ( 0.009900  0.010674  0.012333)
 50:   1013.64   0.001164    5.88  0.000358  (-0.000871 -0.018583  0.003484)
 51:   1019.66   0.002180   11.02  0.000667  ( 0.003595 -0.025049  0.005168)
 52:   1054.19   0.003423   17.30  0.001013  ( 0.030386  0.001311  0.009403)
 53:   1060.23   0.003330   16.83  0.000980  ( 0.004575 -0.028512  0.012092)
 54:   1067.23   0.001069    5.40  0.000313  ( 0.008027  0.000639  0.015741)
 55:   1088.01   0.001882    9.51  0.000540  ( 0.022818  0.004290 -0.000825)
 56:   1092.39   0.000835    4.22  0.000239  ( 0.002261 -0.002802  0.015023)
 57:   1117.38   0.002495   12.61  0.000697  ( 0.008572 -0.015738 -0.019384)
 58:   1135.10   0.001859    9.40  0.000511  (-0.019403  0.004746 -0.010592)
 59:   1137.72   0.009057   45.77  0.002484  ( 0.048501  0.011178  0.002603)
 60:   1174.73   0.001472    7.44  0.000391  ( 0.017364 -0.009354  0.001411)
 61:   1182.45   0.000335    1.70  0.000089  ( 0.008279 -0.002429  0.003754)
 62:   1196.17   0.018629   94.14  0.004860  (-0.031856  0.049289 -0.037627)
 63:   1202.95   0.014246   71.99  0.003696  ( 0.055184  0.016003 -0.019856)
 64:   1206.74   0.000134    0.68  0.000035  ( 0.004037 -0.003784  0.002038)
 65:   1239.32   0.001776    8.98  0.000447  ( 0.010139 -0.008479  0.016511)
 66:   1291.85   0.010481   52.97  0.002532  (-0.012221 -0.047858  0.009595)
 67:   1298.54   0.007600   38.41  0.001826  (-0.042425  0.000151  0.005152)
 68:   1322.82   0.014258   72.06  0.003364  ( 0.033447 -0.033481 -0.033526)
 69:   1338.09   0.046652  235.76  0.010880  ( 0.023407 -0.037169 -0.094608)
 70:   1363.19   0.000795    4.02  0.000182  ( 0.010400 -0.006983  0.005003)
 71:   1384.23   0.003370   17.03  0.000760  (-0.023617  0.006467  0.012654)
 72:   1400.97   0.006470   32.70  0.001441  ( 0.028531 -0.019788 -0.015352)
 73:   1414.22   0.009754   49.29  0.002152  (-0.033555  0.012383  0.029550)
 74:   1420.71   0.005787   29.25  0.001271  (-0.033396 -0.004208  0.011756)
 75:   1441.15   0.019840  100.26  0.004296  (-0.020769  0.053654 -0.031400)
 76:   1458.65   0.013277   67.10  0.002841  ( 0.011884  0.037161 -0.036310)
 77:   1477.71   0.008898   44.97  0.001879  ( 0.007521  0.028561  0.031729)
 78:   1485.57   0.006871   34.72  0.001443  ( 0.013547 -0.024439 -0.025740)
 79:   1492.96   0.001702    8.60  0.000356  (-0.018264 -0.004445 -0.001575)
 80:   1499.22   0.000797    4.03  0.000166  (-0.009459  0.001015  0.008678)
 81:   1500.52   0.003464   17.51  0.000720  ( 0.005669  0.015942  0.020837)
 82:   1502.79   0.004187   21.16  0.000869  (-0.017558 -0.003692  0.023397)
 83:   1506.77   0.004745   23.98  0.000983  (-0.011920  0.028408 -0.005806)
 84:   1514.20   0.004300   21.73  0.000886  (-0.023063 -0.013396 -0.013227)
 85:   1515.28   0.002148   10.86  0.000442  (-0.000556 -0.018825 -0.009368)
 86:   1519.24   0.000496    2.51  0.000102  (-0.000798  0.000981  0.010014)
 87:   1528.86   0.015639   79.04  0.003192  (-0.037742  0.008133  0.041251)
 88:   1540.98   0.004993   25.23  0.001011  ( 0.025626 -0.017519  0.006892)
 89:   1552.47   0.015550   78.58  0.003126  ( 0.013378  0.047098 -0.026993)
 90:   1639.18   0.000723    3.66  0.000138  ( 0.004848  0.004139  0.009853)
 91:   1659.50   0.000928    4.69  0.000175  ( 0.011581 -0.004021  0.004930)
 92:   1708.13   0.142248  718.86  0.025988  (-0.102919 -0.033196 -0.119555)
 93:   1712.38   0.077960  393.98  0.014207  (-0.085103  0.080856 -0.020668)
 94:   3045.74   0.010540   53.26  0.001080  ( 0.015451  0.027631 -0.008814)
 95:   3057.19   0.012041   60.85  0.001229  ( 0.020247 -0.019003  0.021401)
 96:   3058.19   0.006399   32.34  0.000653  ( 0.003948  0.023199 -0.009956)
 97:   3068.18   0.003623   18.31  0.000368  (-0.013429  0.001211 -0.013662)
 98:   3070.43   0.000605    3.06  0.000061  ( 0.005812 -0.000074 -0.005263)
 99:   3088.31   0.007977   40.31  0.000806  ( 0.009335 -0.005928  0.026149)
100:   3101.63   0.009819   49.62  0.000988  (-0.001094 -0.017127 -0.026333)
101:   3115.78   0.005690   28.76  0.000570  ( 0.003654  0.022683  0.006485)
102:   3118.35   0.000320    1.62  0.000032  (-0.000829 -0.005127  0.002253)
103:   3119.18   0.010622   53.68  0.001063  (-0.029503  0.013399  0.003576)
104:   3141.22   0.002267   11.46  0.000225  ( 0.006317 -0.013441  0.002169)
105:   3168.27   0.002346   11.86  0.000231  (-0.003594 -0.006622 -0.013202)
106:   3179.01   0.002003   10.12  0.000197  (-0.005913  0.004696 -0.011816)
107:   3183.54   0.003251   16.43  0.000319  (-0.003414 -0.000350 -0.017518)
108:   3186.24   0.000763    3.85  0.000075  ( 0.005575 -0.006604 -0.000025)
109:   3191.71   0.001127    5.70  0.000110  ( 0.010237 -0.002310 -0.000206)
110:   3195.82   0.009687   48.95  0.000946  (-0.002571 -0.001924 -0.030588)
111:   3201.52   0.001698    8.58  0.000166  (-0.002353 -0.003040  0.012278)
112:   3208.34   0.006351   32.09  0.000618  (-0.017566  0.017572  0.000610)
113:   3232.56   0.001738    8.79  0.000168  (-0.010513  0.005222 -0.005482)

--------------------------
THERMOCHEMISTRY AT 298.15K
--------------------------

Temperature         ... 298.15 K
Pressure            ... 1.00 atm
Total Mass          ... 248.33 AMU

Throughout the following assumptions are being made:
  (1) The electronic state is orbitally nondegenerate
  (2) There are no thermally accessible electronically excited states
  (3) Hindered rotations indicated by low frequency modes are not
      treated as such but are treated as vibrations and this may
      cause some error
  (4) All equations used are the standard statistical mechanics
      equations for an ideal gas
  (5) All vibrations are strictly harmonic

freq.      24.94  E(vib)   ...       0.56
freq.      36.86  E(vib)   ...       0.54
freq.      46.70  E(vib)   ...       0.53
freq.      66.57  E(vib)   ...       0.50
freq.      82.38  E(vib)   ...       0.48
freq.      88.60  E(vib)   ...       0.47
freq.     101.39  E(vib)   ...       0.46
freq.     127.53  E(vib)   ...       0.43
freq.     152.49  E(vib)   ...       0.40
freq.     170.15  E(vib)   ...       0.38
freq.     186.15  E(vib)   ...       0.37
freq.     192.84  E(vib)   ...       0.36
freq.     215.67  E(vib)   ...       0.34
freq.     228.98  E(vib)   ...       0.32
freq.     242.77  E(vib)   ...       0.31
freq.     250.02  E(vib)   ...       0.31
freq.     278.44  E(vib)   ...       0.28
freq.     301.64  E(vib)   ...       0.26
freq.     329.03  E(vib)   ...       0.24
freq.     336.57  E(vib)   ...       0.24
freq.     403.81  E(vib)   ...       0.19
freq.     418.41  E(vib)   ...       0.18
freq.     431.26  E(vib)   ...       0.18
freq.     449.77  E(vib)   ...       0.17
freq.     507.98  E(vib)   ...       0.14
freq.     558.03  E(vib)   ...       0.12
freq.     583.19  E(vib)   ...       0.11
freq.     586.06  E(vib)   ...       0.11
freq.     612.64  E(vib)   ...       0.10
freq.     632.92  E(vib)   ...       0.09
freq.     648.45  E(vib)   ...       0.08
freq.     702.36  E(vib)   ...       0.07
freq.     720.02  E(vib)   ...       0.07
freq.     745.23  E(vib)   ...       0.06
freq.     773.41  E(vib)   ...       0.05
freq.     787.72  E(vib)   ...       0.05
freq.     815.34  E(vib)   ...       0.05
freq.     871.44  E(vib)   ...       0.04
freq.     920.85  E(vib)   ...       0.03
freq.     940.74  E(vib)   ...       0.03
freq.     986.16  E(vib)   ...       0.02
freq.     999.00  E(vib)   ...       0.02
freq.    1005.24  E(vib)   ...       0.02
freq.    1009.52  E(vib)   ...       0.02
freq.    1013.64  E(vib)   ...       0.02
freq.    1019.66  E(vib)   ...       0.02
freq.    1054.19  E(vib)   ...       0.02
freq.    1060.23  E(vib)   ...       0.02
freq.    1067.23  E(vib)   ...       0.02
freq.    1088.01  E(vib)   ...       0.02
freq.    1092.39  E(vib)   ...       0.02
freq.    1117.38  E(vib)   ...       0.01
freq.    1135.10  E(vib)   ...       0.01
freq.    1137.72  E(vib)   ...       0.01
freq.    1174.73  E(vib)   ...       0.01
freq.    1182.45  E(vib)   ...       0.01
freq.    1196.17  E(vib)   ...       0.01
freq.    1202.95  E(vib)   ...       0.01
freq.    1206.74  E(vib)   ...       0.01
freq.    1239.32  E(vib)   ...       0.01
freq.    1291.85  E(vib)   ...       0.01
freq.    1298.54  E(vib)   ...       0.01
freq.    1322.82  E(vib)   ...       0.01
freq.    1338.09  E(vib)   ...       0.01
freq.    1363.19  E(vib)   ...       0.01
freq.    1384.23  E(vib)   ...       0.00
freq.    1400.97  E(vib)   ...       0.00
freq.    1414.22  E(vib)   ...       0.00
freq.    1420.71  E(vib)   ...       0.00
freq.    1441.15  E(vib)   ...       0.00
freq.    1458.65  E(vib)   ...       0.00
freq.    1477.71  E(vib)   ...       0.00
freq.    1485.57  E(vib)   ...       0.00
freq.    1492.96  E(vib)   ...       0.00
freq.    1499.22  E(vib)   ...       0.00
freq.    1500.52  E(vib)   ...       0.00
freq.    1502.79  E(vib)   ...       0.00
freq.    1506.77  E(vib)   ...       0.00
freq.    1514.20  E(vib)   ...       0.00
freq.    1515.28  E(vib)   ...       0.00
freq.    1519.24  E(vib)   ...       0.00
freq.    1528.86  E(vib)   ...       0.00
freq.    1540.98  E(vib)   ...       0.00
freq.    1552.47  E(vib)   ...       0.00
freq.    1639.18  E(vib)   ...       0.00
freq.    1659.50  E(vib)   ...       0.00
freq.    1708.13  E(vib)   ...       0.00
freq.    1712.38  E(vib)   ...       0.00
freq.    3045.74  E(vib)   ...       0.00
freq.    3057.19  E(vib)   ...       0.00
freq.    3058.19  E(vib)   ...       0.00
freq.    3068.18  E(vib)   ...       0.00
freq.    3070.43  E(vib)   ...       0.00
freq.    3088.31  E(vib)   ...       0.00
freq.    3101.63  E(vib)   ...       0.00
freq.    3115.78  E(vib)   ...       0.00
freq.    3118.35  E(vib)   ...       0.00
freq.    3119.18  E(vib)   ...       0.00
freq.    3141.22  E(vib)   ...       0.00
freq.    3168.27  E(vib)   ...       0.00
freq.    3179.01  E(vib)   ...       0.00
freq.    3183.54  E(vib)   ...       0.00
freq.    3186.24  E(vib)   ...       0.00
freq.    3191.71  E(vib)   ...       0.00
freq.    3195.82  E(vib)   ...       0.00
freq.    3201.52  E(vib)   ...       0.00
freq.    3208.34  E(vib)   ...       0.00
freq.    3232.56  E(vib)   ...       0.00

------------
INNER ENERGY
------------

The inner energy is: U= E(el) + E(ZPE) + E(vib) + E(rot) + E(trans)
    E(el)   - is the total energy from the electronic structure calculation
              = E(kin-el) + E(nuc-el) + E(el-el) + E(nuc-nuc)
    E(ZPE)  - the the zero temperature vibrational energy from the frequency calculation
    E(vib)  - the the finite temperature correction to E(ZPE) due to population
              of excited vibrational states
    E(rot)  - is the rotational thermal energy
    E(trans)- is the translational thermal energy

Summary of contributions to the inner energy U:
Electronic energy                ...   -805.08133971 Eh
Zero point energy                ...      0.32527361 Eh     204.11 kcal/mol
Thermal vibrational correction   ...      0.01611208 Eh      10.11 kcal/mol
Thermal rotational correction    ...      0.00141627 Eh       0.89 kcal/mol
Thermal translational correction ...      0.00141627 Eh       0.89 kcal/mol
-----------------------------------------------------------------------
Total thermal energy                   -804.73712147 Eh

Summary of corrections to the electronic energy:
(perhaps to be used in another calculation)
Total thermal correction                  0.01894463 Eh      11.89 kcal/mol
Non-thermal (ZPE) correction              0.32527361 Eh     204.11 kcal/mol
-----------------------------------------------------------------------
Total correction                          0.34421823 Eh     216.00 kcal/mol

--------
ENTHALPY
--------

Rotational constants in cm-1:     0.020281     0.010617     0.008773

                             ****ORCA TERMINATED NORMALLY****
TOTAL RUN TIME: 0 days 0 hours 50 minutes 39 seconds 939 msec
