                         Program Version 5.0.4 -  RELEASE  -
|  1> ! OPT FREQ B3LYP 6-31G(d) D4 AUTOAUX CPCM(water)
|  2>
|  3> %PAL NPROCS 4 END
|  4>
|  5> %maxcore 3375
|  6>
|  7> *xyzfile 0 1 /users/fjb15167/WWenergy/structures/Ni.xyz
|  8>
|  9>                          ****END OF INPUT****
 Total Charge           Charge          ....    0
 Multiplicity           Mult            ....    1
 Number of Electrons    NEL             ....  110
Dispersion correction           -0.058217458
FINAL SINGLE POINT ENERGY      -652.737455593641
Dispersion correction            ... Starting D4
Dispersion correction           -0.057739883
FINAL SINGLE POINT ENERGY      -652.737924705830
Dispersion correction            ... Starting D4
Dispersion correction           -0.057926351
FINAL SINGLE POINT ENERGY      -652.738068778605
Dispersion correction            ... Starting D4
FINAL SINGLE POINT ENERGY      -652.738130601678
FINAL SINGLE POINT ENERGY      -652.738149255745
FINAL SINGLE POINT ENERGY      -652.738177097276
FINAL SINGLE POINT ENERGY      -652.738196702965
FINAL SINGLE POINT ENERGY      -652.738211775889
FINAL SINGLE POINT ENERGY      -652.738216076131
FINAL SINGLE POINT ENERGY      -652.738220757518
FINAL SINGLE POINT ENERGY      -652.738231616270
FINAL SINGLE POINT ENERGY      -652.738240609659
Dispersion correction           -0.058072142
FINAL SINGLE POINT ENERGY      -652.738247569666
Dispersion correction            ... Starting D4
Dispersion correction           -0.058071438
FINAL SINGLE POINT ENERGY      -652.738249786143
Dispersion correction            ... Starting D4
                    ***********************HURRAY********************

CARTESIAN COORDINATES (ANGSTROEM)
---------------------------------
  C     -2.569426   -1.482528   -0.915176
  H     -2.577541   -0.575625   -1.518957
  H     -3.464298   -1.479192   -0.282286
  H     -2.622472   -2.354414   -1.570787
  C     -1.337573   -1.645637   -0.045074
  O     -0.901982   -2.788398    0.167180
  N     -0.738881   -0.543774    0.499584
  C      0.399915   -0.757667    1.396211
  H      0.147064   -0.403499    2.400308
  H      0.595351   -1.828695    1.443512
  C      1.643639    0.038542    0.980468
  N      2.264510   -0.294561   -0.181558
  O      2.030874    0.967692    1.703375
  C      1.854680   -1.370608   -1.076116
  H      1.333403   -0.967517   -1.954737
  H      2.749508   -1.901565   -1.419772
  H      1.200641   -2.083333   -0.577321
  C      3.360839    0.533133   -0.672840
  H      3.093171    0.971067   -1.642886
  H      3.554260    1.326978    0.046518
  H      4.263644   -0.075452   -0.803501
  C     -1.172974    0.876040    0.379292
  H     -0.540686    1.393397    1.107601
  C     -0.822939    1.479372   -0.995160
  H      0.208051    1.197393   -1.238305
  H     -1.458028    1.048112   -1.777380
  C     -0.950465    3.006513   -1.021541
  H     -0.610079    3.403395   -1.984574
  H     -1.986783    3.331276   -0.876099
  H     -0.339469    3.465701   -0.233822
  C     -2.620932    1.115895    0.827556
  H     -2.764466    2.181378    1.033121
  H     -3.354465    0.823594    0.071933
  H     -2.831089    0.563988    1.750234

 Multiplicity           Mult            ....    1
 Number of Electrons    NEL             ....  110
 Basis Dimension        Dim             ....  236

ORBITAL ENERGIES
----------------

  NO   OCC          E(Eh)            E(eV)
   0   2.0000     -19.106689      -519.9194
   1   2.0000     -19.106021      -519.9013
   2   2.0000     -14.358867      -390.7246
   3   2.0000     -14.357761      -390.6945
   4   2.0000     -10.281849      -279.7833
   5   2.0000     -10.279137      -279.7095
   6   2.0000     -10.217249      -278.0255
   7   2.0000     -10.208733      -277.7937
   8   2.0000     -10.198071      -277.5036
   9   2.0000     -10.195314      -277.4286
  10   2.0000     -10.170549      -276.7547
  11   2.0000     -10.170357      -276.7495
  12   2.0000     -10.162593      -276.5382
  13   2.0000     -10.160166      -276.4722
  14   2.0000      -1.030254       -28.0346
  15   2.0000      -1.023638       -27.8546
  16   2.0000      -0.931293       -25.3418
  17   2.0000      -0.924051       -25.1447
  18   2.0000      -0.789490       -21.4831
  19   2.0000      -0.752591       -20.4790
  20   2.0000      -0.721086       -19.6217
  21   2.0000      -0.714649       -19.4466
  22   2.0000      -0.704881       -19.1808
  23   2.0000      -0.670327       -18.2405
  24   2.0000      -0.648469       -17.6457
  25   2.0000      -0.594555       -16.1787
  26   2.0000      -0.542284       -14.7563
  27   2.0000      -0.524971       -14.2852
  28   2.0000      -0.502160       -13.6645
  29   2.0000      -0.488629       -13.2963
  30   2.0000      -0.478414       -13.0183
  31   2.0000      -0.461353       -12.5541
  32   2.0000      -0.455657       -12.3990
  33   2.0000      -0.447741       -12.1836
  34   2.0000      -0.440252       -11.9799
  35   2.0000      -0.424789       -11.5591
  36   2.0000      -0.410614       -11.1734
  37   2.0000      -0.406149       -11.0519
  38   2.0000      -0.399036       -10.8583
  39   2.0000      -0.395251       -10.7553
  40   2.0000      -0.393370       -10.7041
  41   2.0000      -0.388468       -10.5707
  42   2.0000      -0.381881       -10.3915
  43   2.0000      -0.379130       -10.3166
  44   2.0000      -0.373239       -10.1563
  45   2.0000      -0.365574        -9.9478
  46   2.0000      -0.358124        -9.7451
  47   2.0000      -0.344746        -9.3810
  48   2.0000      -0.339409        -9.2358
  49   2.0000      -0.326903        -8.8955
  50   2.0000      -0.321440        -8.7468
  51   2.0000      -0.256762        -6.9868
  52   2.0000      -0.249608        -6.7922
  53   2.0000      -0.237052        -6.4505
  54   2.0000      -0.233646        -6.3578
  55   0.0000       0.016703         0.4545
  56   0.0000       0.030020         0.8169
  57   0.0000       0.082841         2.2542
  58   0.0000       0.104844         2.8530
  59   0.0000       0.113877         3.0987

MULLIKEN ATOMIC CHARGES
-----------------------
   0 C :   -0.557767
   1 H :    0.187371
   2 H :    0.198917
   3 H :    0.179948
   4 C :    0.534403
   5 O :   -0.546832
   6 N :   -0.382635
   7 C :   -0.259612
   8 H :    0.181040
   9 H :    0.206896
  10 C :    0.522550
  11 N :   -0.357047
  12 O :   -0.545802
  13 C :   -0.346230
  14 H :    0.171539
  15 H :    0.173640
  16 H :    0.193879
  17 C :   -0.332323
  18 H :    0.172778
  19 H :    0.184651
  20 H :    0.173160
  21 C :    0.023857
  22 H :    0.164674
  23 C :   -0.271053
  24 H :    0.157886
  25 H :    0.154832
  26 C :   -0.464333
  27 H :    0.153678
  28 H :    0.157706
  29 H :    0.152295
  30 C :   -0.475215
  31 H :    0.166978
  32 H :    0.164585
  33 H :    0.161588
Sum of atomic charges:   -0.0000000

LOEWDIN ATOMIC CHARGES
----------------------
   0 C :   -0.391999
   1 H :    0.146071
   2 H :    0.160567
   3 H :    0.150523
   4 C :    0.117081
   5 O :   -0.348042
   6 N :   -0.067151
   7 C :   -0.181064
   8 H :    0.144392
   9 H :    0.160861
  10 C :    0.094176
  11 N :   -0.067445
  12 O :   -0.343422
  13 C :   -0.285149
  14 H :    0.131959
  15 H :    0.137481
  16 H :    0.148466
  17 C :   -0.279990
  18 H :    0.134385
  19 H :    0.147271
  20 H :    0.135485
  21 C :   -0.057382
  22 H :    0.141494
  23 C :   -0.240232
  24 H :    0.130938
  25 H :    0.126801
  26 C :   -0.368588
  27 H :    0.131047
  28 H :    0.128233
  29 H :    0.126950
  30 C :   -0.371229
  31 H :    0.138632
  32 H :    0.133389
  33 H :    0.135490

  Mayer bond orders larger than 0.100000
B(  0-C ,  1-H ) :   0.9124 B(  0-C ,  2-H ) :   0.9211 B(  0-C ,  3-H ) :   0.9364
B(  0-C ,  4-C ) :   0.9944 B(  4-C ,  5-O ) :   1.7151 B(  4-C ,  6-N ) :   1.1775
B(  6-N ,  7-C ) :   0.9497 B(  6-N , 21-C ) :   0.8948 B(  7-C ,  8-H ) :   0.9163
B(  7-C ,  9-H ) :   0.8893 B(  7-C , 10-C ) :   0.9380 B( 10-C , 11-N ) :   1.2007
B( 10-C , 12-O ) :   1.7449 B( 11-N , 12-O ) :   0.1011 B( 11-N , 13-C ) :   0.9506
B( 11-N , 17-C ) :   0.9465 B( 13-C , 14-H ) :   0.9290 B( 13-C , 15-H ) :   0.9343
B( 13-C , 16-H ) :   0.9040 B( 17-C , 18-H ) :   0.9353 B( 17-C , 19-H ) :   0.9247
B( 17-C , 20-H ) :   0.9368 B( 21-C , 22-H ) :   0.9130 B( 21-C , 23-C ) :   0.9928
B( 21-C , 30-C ) :   1.0079 B( 23-C , 24-H ) :   0.9295 B( 23-C , 25-H ) :   0.9250
B( 23-C , 26-C ) :   1.0117 B( 26-C , 27-H ) :   0.9491 B( 26-C , 28-H ) :   0.9470
B( 26-C , 29-H ) :   0.9489 B( 30-C , 31-H ) :   0.9380 B( 30-C , 32-H ) :   0.9378
B( 30-C , 33-H ) :   0.9433

Dispersion correction           -0.058068672
FINAL SINGLE POINT ENERGY      -652.738249966556

DIPOLE MOMENT
-------------
                                X             Y             Z
Electronic contribution:      5.06796      -7.81765       7.13855
Nuclear contribution   :     -5.73759       8.56334      -8.68160
                        -----------------------------------------
Total Dipole Moment    :     -0.66963       0.74570      -1.54305
                        -----------------------------------------
Magnitude (a.u.)       :      1.83997
Magnitude (Debye)      :      4.67682

Dispersion correction in the Hessian             ... Starting D4

VIBRATIONAL FREQUENCIES
-----------------------

Scaling factor for frequencies =  1.000000000  (already applied!)

   0:         0.00 cm**-1
   1:         0.00 cm**-1
   2:         0.00 cm**-1
   3:         0.00 cm**-1
   4:         0.00 cm**-1
   5:         0.00 cm**-1
   6:        43.40 cm**-1
   7:        51.04 cm**-1
   8:        64.38 cm**-1
   9:        76.80 cm**-1
  10:        89.77 cm**-1
  11:        97.37 cm**-1
  12:       108.20 cm**-1
  13:       141.50 cm**-1
  14:       165.99 cm**-1
  15:       191.07 cm**-1
  16:       203.25 cm**-1
  17:       218.52 cm**-1
  18:       240.04 cm**-1
  19:       266.78 cm**-1
  20:       268.81 cm**-1
  21:       286.07 cm**-1
  22:       314.47 cm**-1
  23:       344.76 cm**-1
  24:       377.61 cm**-1
  25:       396.94 cm**-1
  26:       424.49 cm**-1
  27:       441.41 cm**-1
  28:       477.83 cm**-1
  29:       538.36 cm**-1
  30:       582.30 cm**-1
  31:       611.64 cm**-1
  32:       642.51 cm**-1
  33:       703.40 cm**-1
  34:       746.58 cm**-1
  35:       781.50 cm**-1
  36:       794.64 cm**-1
  37:       864.69 cm**-1
  38:       943.78 cm**-1
  39:       984.24 cm**-1
  40:       996.38 cm**-1
  41:      1006.52 cm**-1
  42:      1015.86 cm**-1
  43:      1041.39 cm**-1
  44:      1063.80 cm**-1
  45:      1074.34 cm**-1
  46:      1091.14 cm**-1
  47:      1137.18 cm**-1
  48:      1143.02 cm**-1
  49:      1154.70 cm**-1
  50:      1167.56 cm**-1
  51:      1183.52 cm**-1
  52:      1200.63 cm**-1
  53:      1227.79 cm**-1
  54:      1272.88 cm**-1
  55:      1286.31 cm**-1
  56:      1311.46 cm**-1
  57:      1356.76 cm**-1
  58:      1366.50 cm**-1
  59:      1381.12 cm**-1
  60:      1398.39 cm**-1
  61:      1418.46 cm**-1
  62:      1429.08 cm**-1
  63:      1435.30 cm**-1
  64:      1440.28 cm**-1
  65:      1459.01 cm**-1
  66:      1485.06 cm**-1
  67:      1489.37 cm**-1
  68:      1499.78 cm**-1
  69:      1500.27 cm**-1
  70:      1506.20 cm**-1
  71:      1508.00 cm**-1
  72:      1511.89 cm**-1
  73:      1514.50 cm**-1
  74:      1519.31 cm**-1
  75:      1523.82 cm**-1
  76:      1526.86 cm**-1
  77:      1530.43 cm**-1
  78:      1538.83 cm**-1
  79:      1556.08 cm**-1
  80:      1685.06 cm**-1
  81:      1705.95 cm**-1
  82:      3038.00 cm**-1
  83:      3042.63 cm**-1
  84:      3044.92 cm**-1
  85:      3061.34 cm**-1
  86:      3064.26 cm**-1
  87:      3075.67 cm**-1
  88:      3078.56 cm**-1
  89:      3087.41 cm**-1
  90:      3094.90 cm**-1
  91:      3095.50 cm**-1
  92:      3098.68 cm**-1
  93:      3110.71 cm**-1
  94:      3118.75 cm**-1
  95:      3128.98 cm**-1
  96:      3146.00 cm**-1
  97:      3149.14 cm**-1
  98:      3166.44 cm**-1
  99:      3191.17 cm**-1
 100:      3193.82 cm**-1
 101:      3195.44 cm**-1

IR SPECTRUM
-----------

 Mode   freq       eps      Int      T**2         TX        TY        TZ
       cm**-1   L/(mol*cm) km/mol    a.u.
----------------------------------------------------------------------------
  6:     43.40   0.000395    2.00  0.002842  (-0.033743  0.036347 -0.019554)
  7:     51.04   0.000849    4.29  0.005194  (-0.010536  0.049108 -0.051686)
  8:     64.38   0.000629    3.18  0.003047  ( 0.032410 -0.017017  0.041317)
  9:     76.80   0.000502    2.54  0.002040  ( 0.031473 -0.000572  0.032388)
 10:     89.77   0.000247    1.25  0.000858  ( 0.011868 -0.005902  0.026112)
 11:     97.37   0.000259    1.31  0.000831  (-0.027779  0.000752  0.007656)
 12:    108.20   0.003090   15.61  0.008911  ( 0.080495  0.007422 -0.048753)
 13:    141.50   0.000837    4.23  0.001845  ( 0.040627 -0.013957  0.000010)
 14:    165.99   0.000037    0.18  0.000069  (-0.007081  0.001569 -0.004024)
 15:    191.07   0.000218    1.10  0.000355  (-0.017760 -0.003617  0.005178)
 16:    203.25   0.000117    0.59  0.000179  ( 0.010870  0.007609  0.001768)
 17:    218.52   0.000582    2.94  0.000831  ( 0.003862 -0.014958  0.024328)
 18:    240.04   0.000942    4.76  0.001225  ( 0.030691 -0.002249  0.016664)
 19:    266.78   0.000349    1.77  0.000409  (-0.005033 -0.017370  0.009029)
 20:    268.81   0.001903    9.62  0.002210  ( 0.042193 -0.020688  0.001162)
 21:    286.07   0.000306    1.55  0.000334  (-0.012119 -0.013435  0.002588)
 22:    314.47   0.000591    2.99  0.000587  ( 0.015212 -0.010217  0.015840)
 23:    344.76   0.001904    9.62  0.001723  ( 0.030885 -0.003286 -0.027546)
 24:    377.61   0.002332   11.78  0.001927  ( 0.007613 -0.032410 -0.028614)
 25:    396.94   0.001860    9.40  0.001462  ( 0.008291  0.026723 -0.026064)
 26:    424.49   0.001692    8.55  0.001244  (-0.033904  0.001039  0.009676)
 27:    441.41   0.001809    9.14  0.001279  (-0.019786 -0.025185  0.015919)
 28:    477.83   0.001280    6.47  0.000836  ( 0.019854  0.018226  0.010471)
 29:    538.36   0.004962   25.08  0.002876  (-0.038801 -0.000270 -0.037022)
 30:    582.30   0.004065   20.55  0.002179  (-0.031593 -0.029363  0.017845)
 31:    611.64   0.001937    9.79  0.000988  ( 0.000230 -0.018110  0.025697)
 32:    642.51   0.005676   28.69  0.002757  (-0.024872  0.026665  0.037780)
 33:    703.40   0.001183    5.98  0.000525  ( 0.013127  0.008364  0.016814)
 34:    746.58   0.000310    1.57  0.000130  ( 0.006578  0.008146 -0.004469)
 35:    781.50   0.006637   33.54  0.002650  ( 0.040805 -0.013780 -0.028198)
 36:    794.64   0.001070    5.41  0.000420  (-0.002982  0.015333  0.013279)
 37:    864.69   0.000695    3.51  0.000251  ( 0.004141 -0.013743 -0.006687)
 38:    943.78   0.000841    4.25  0.000278  ( 0.007305  0.008696 -0.012205)
 39:    984.24   0.004577   23.13  0.001451  ( 0.016716 -0.008090 -0.033259)
 40:    996.38   0.003323   16.80  0.001041  ( 0.020911  0.003291 -0.024347)
 41:   1006.52   0.002569   12.98  0.000797  ( 0.017227 -0.001595 -0.022298)
 42:   1015.86   0.005348   27.03  0.001643  (-0.001694 -0.040440 -0.002168)
 43:   1041.39   0.002879   14.55  0.000863  ( 0.002580  0.022489 -0.018713)
 44:   1063.80   0.003029   15.31  0.000889  ( 0.022929  0.005266 -0.018308)
 45:   1074.34   0.004599   23.24  0.001336  ( 0.004847  0.009142  0.035054)
 46:   1091.14   0.001955    9.88  0.000559  (-0.011439 -0.020691  0.000524)
 47:   1137.18   0.000166    0.84  0.000045  (-0.003583  0.000414 -0.005698)
 48:   1143.02   0.009973   50.40  0.002723  (-0.008988  0.048322  0.017520)
 49:   1154.70   0.007393   37.36  0.001998  ( 0.039354 -0.012600 -0.017047)
 50:   1167.56   0.002761   13.95  0.000738  (-0.017489  0.000667  0.020776)
 51:   1183.52   0.001541    7.79  0.000406  (-0.005423  0.012670  0.014711)
 52:   1200.63   0.011101   56.10  0.002885  ( 0.007307 -0.018554 -0.049875)
 53:   1227.79   0.006710   33.91  0.001705  (-0.003077  0.029024 -0.029215)
 54:   1272.88   0.034126  172.46  0.008366  (-0.062651 -0.046359 -0.047874)
 55:   1286.31   0.019480   98.44  0.004726  (-0.055875 -0.036456  0.016578)
 56:   1311.46   0.001917    9.69  0.000456  (-0.012806  0.011945 -0.012230)
 57:   1356.76   0.007270   36.74  0.001672  ( 0.022657  0.033978  0.002055)
 58:   1366.50   0.002513   12.70  0.000574  (-0.003864  0.022303  0.007844)
 59:   1381.12   0.014360   72.57  0.003245  ( 0.017851  0.052961  0.011003)
 60:   1398.39   0.008416   42.53  0.001878  (-0.020515 -0.038023 -0.003394)
 61:   1418.46   0.007809   39.46  0.001718  ( 0.031230  0.020327  0.018150)
 62:   1429.08   0.000432    2.18  0.000094  (-0.006754  0.004176  0.005592)
 63:   1435.30   0.001575    7.96  0.000342  ( 0.000274 -0.017548 -0.005871)
 64:   1440.28   0.016142   81.58  0.003497  (-0.020589  0.028096  0.047793)
 65:   1459.01   0.017103   86.43  0.003658  (-0.043022  0.000518  0.042509)
 66:   1485.06   0.014629   73.93  0.003074  ( 0.012179  0.054086  0.000648)
 67:   1489.37   0.002269   11.47  0.000475  (-0.019408 -0.009835 -0.001430)
 68:   1499.78   0.001454    7.35  0.000303  ( 0.016476  0.003392 -0.004434)
 69:   1500.27   0.000956    4.83  0.000199  (-0.012294 -0.001316 -0.006782)
 70:   1506.20   0.000058    0.29  0.000012  ( 0.003427  0.000293  0.000387)
 71:   1508.00   0.001011    5.11  0.000209  (-0.006181 -0.011710  0.005813)
 72:   1511.89   0.000440    2.22  0.000091  (-0.008952 -0.001619 -0.002843)
 73:   1514.50   0.011382   57.52  0.002345  ( 0.039414  0.014279  0.024247)
 74:   1519.31   0.003510   17.74  0.000721  (-0.025282  0.005335 -0.007297)
 75:   1523.82   0.007634   38.58  0.001563  (-0.000427  0.031237  0.024239)
 76:   1526.86   0.002277   11.51  0.000465  (-0.005801 -0.002734  0.020597)
 77:   1530.43   0.005683   28.72  0.001159  (-0.009892  0.029612 -0.013564)
 78:   1538.83   0.011821   59.74  0.002397  ( 0.032922  0.020528  0.029866)
 79:   1556.08   0.016617   83.98  0.003333  (-0.038798 -0.010717  0.041380)
 80:   1685.06   0.127369  643.67  0.023588  (-0.022679  0.150969  0.016790)
 81:   1705.95   0.108742  549.54  0.019892  ( 0.006345  0.075911  0.118697)
 82:   3038.00   0.007371   37.25  0.000757  (-0.009995 -0.014603 -0.021070)
 83:   3042.63   0.007056   35.66  0.000724  (-0.001279 -0.026625 -0.003620)
 84:   3044.92   0.017722   89.56  0.001816  ( 0.021806  0.004181 -0.036376)
 85:   3061.34   0.008697   43.95  0.000887  (-0.013123  0.016800  0.020786)
 86:   3064.26   0.001491    7.53  0.000152  ( 0.012073  0.001861 -0.001612)
 87:   3075.67   0.001043    5.27  0.000106  (-0.008223 -0.005154 -0.003413)
 88:   3078.56   0.001198    6.05  0.000121  ( 0.006040 -0.008721 -0.002985)
 89:   3087.41   0.007701   38.92  0.000778  ( 0.002514  0.007408  0.026781)
 90:   3094.90   0.011586   58.55  0.001168  ( 0.022828 -0.024363  0.007323)
 91:   3095.50   0.006589   33.30  0.000664  ( 0.023748 -0.007922  0.006129)
 92:   3098.68   0.000633    3.20  0.000064  ( 0.005751 -0.002801 -0.004777)
 93:   3110.71   0.015213   76.88  0.001526  (-0.017776 -0.002672 -0.034685)
 94:   3118.75   0.017356   87.71  0.001737  (-0.039328 -0.010700  0.008683)
 95:   3128.98   0.007331   37.05  0.000731  (-0.010840  0.023531 -0.007741)
 96:   3146.00   0.008590   43.41  0.000852  ( 0.008443  0.013513  0.024458)
 97:   3149.14   0.002770   14.00  0.000274  (-0.010748 -0.006259 -0.010945)
 98:   3166.44   0.002118   10.70  0.000209  ( 0.013789  0.003318 -0.002751)
 99:   3191.17   0.003004   15.18  0.000294  ( 0.005048 -0.014547  0.007527)
100:   3193.82   0.001019    5.15  0.000100  ( 0.008763  0.003110  0.003615)
101:   3195.44   0.000643    3.25  0.000063  (-0.001616  0.007753  0.000235)

--------------------------
THERMOCHEMISTRY AT 298.15K
--------------------------

Temperature         ... 298.15 K
Pressure            ... 1.00 atm
Total Mass          ... 200.28 AMU

Throughout the following assumptions are being made:
  (1) The electronic state is orbitally nondegenerate
  (2) There are no thermally accessible electronically excited states
  (3) Hindered rotations indicated by low frequency modes are not
      treated as such but are treated as vibrations and this may
      cause some error
  (4) All equations used are the standard statistical mechanics
      equations for an ideal gas
  (5) All vibrations are strictly harmonic

freq.      43.40  E(vib)   ...       0.53
freq.      51.04  E(vib)   ...       0.52
freq.      64.38  E(vib)   ...       0.51
freq.      76.80  E(vib)   ...       0.49
freq.      89.77  E(vib)   ...       0.47
freq.      97.37  E(vib)   ...       0.46
freq.     108.20  E(vib)   ...       0.45
freq.     141.50  E(vib)   ...       0.41
freq.     165.99  E(vib)   ...       0.39
freq.     191.07  E(vib)   ...       0.36
freq.     203.25  E(vib)   ...       0.35
freq.     218.52  E(vib)   ...       0.33
freq.     240.04  E(vib)   ...       0.31
freq.     266.78  E(vib)   ...       0.29
freq.     268.81  E(vib)   ...       0.29
freq.     286.07  E(vib)   ...       0.27
freq.     314.47  E(vib)   ...       0.25
freq.     344.76  E(vib)   ...       0.23
freq.     377.61  E(vib)   ...       0.21
freq.     396.94  E(vib)   ...       0.20
freq.     424.49  E(vib)   ...       0.18
freq.     441.41  E(vib)   ...       0.17
freq.     477.83  E(vib)   ...       0.15
freq.     538.36  E(vib)   ...       0.12
freq.     582.30  E(vib)   ...       0.11
freq.     611.64  E(vib)   ...       0.10
freq.     642.51  E(vib)   ...       0.09
freq.     703.40  E(vib)   ...       0.07
freq.     746.58  E(vib)   ...       0.06
freq.     781.50  E(vib)   ...       0.05
freq.     794.64  E(vib)   ...       0.05
freq.     864.69  E(vib)   ...       0.04
freq.     943.78  E(vib)   ...       0.03
freq.     984.24  E(vib)   ...       0.02
freq.     996.38  E(vib)   ...       0.02
freq.    1006.52  E(vib)   ...       0.02
freq.    1015.86  E(vib)   ...       0.02
freq.    1041.39  E(vib)   ...       0.02
freq.    1063.80  E(vib)   ...       0.02
freq.    1074.34  E(vib)   ...       0.02
freq.    1091.14  E(vib)   ...       0.02
freq.    1137.18  E(vib)   ...       0.01
freq.    1143.02  E(vib)   ...       0.01
freq.    1154.70  E(vib)   ...       0.01
freq.    1167.56  E(vib)   ...       0.01
freq.    1183.52  E(vib)   ...       0.01
freq.    1200.63  E(vib)   ...       0.01
freq.    1227.79  E(vib)   ...       0.01
freq.    1272.88  E(vib)   ...       0.01
freq.    1286.31  E(vib)   ...       0.01
freq.    1311.46  E(vib)   ...       0.01
freq.    1356.76  E(vib)   ...       0.01
freq.    1366.50  E(vib)   ...       0.01
freq.    1381.12  E(vib)   ...       0.01
freq.    1398.39  E(vib)   ...       0.00
freq.    1418.46  E(vib)   ...       0.00
freq.    1429.08  E(vib)   ...       0.00
freq.    1435.30  E(vib)   ...       0.00
freq.    1440.28  E(vib)   ...       0.00
freq.    1459.01  E(vib)   ...       0.00
freq.    1485.06  E(vib)   ...       0.00
freq.    1489.37  E(vib)   ...       0.00
freq.    1499.78  E(vib)   ...       0.00
freq.    1500.27  E(vib)   ...       0.00
freq.    1506.20  E(vib)   ...       0.00
freq.    1508.00  E(vib)   ...       0.00
freq.    1511.89  E(vib)   ...       0.00
freq.    1514.50  E(vib)   ...       0.00
freq.    1519.31  E(vib)   ...       0.00
freq.    1523.82  E(vib)   ...       0.00
freq.    1526.86  E(vib)   ...       0.00
freq.    1530.43  E(vib)   ...       0.00
freq.    1538.83  E(vib)   ...       0.00
freq.    1556.08  E(vib)   ...       0.00
freq.    1685.06  E(vib)   ...       0.00
freq.    1705.95  E(vib)   ...       0.00
freq.    3038.00  E(vib)   ...       0.00
freq.    3042.63  E(vib)   ...       0.00
freq.    3044.92  E(vib)   ...       0.00
freq.    3061.34  E(vib)   ...       0.00
freq.    3064.26  E(vib)   ...       0.00
freq.    3075.67  E(vib)   ...       0.00
freq.    3078.56  E(vib)   ...       0.00
freq.    3087.41  E(vib)   ...       0.00
freq.    3094.90  E(vib)   ...       0.00
freq.    3095.50  E(vib)   ...       0.00
freq.    3098.68  E(vib)   ...       0.00
freq.    3110.71  E(vib)   ...       0.00
freq.    3118.75  E(vib)   ...       0.00
freq.    3128.98  E(vib)   ...       0.00
freq.    3146.00  E(vib)   ...       0.00
freq.    3149.14  E(vib)   ...       0.00
freq.    3166.44  E(vib)   ...       0.00
freq.    3191.17  E(vib)   ...       0.00
freq.    3193.82  E(vib)   ...       0.00
freq.    3195.44  E(vib)   ...       0.00

------------
INNER ENERGY
------------

The inner energy is: U= E(el) + E(ZPE) + E(vib) + E(rot) + E(trans)
    E(el)   - is the total energy from the electronic structure calculation
              = E(kin-el) + E(nuc-el) + E(el-el) + E(nuc-nuc)
    E(ZPE)  - the the zero temperature vibrational energy from the frequency calculation
    E(vib)  - the the finite temperature correction to E(ZPE) due to population
              of excited vibrational states
    E(rot)  - is the rotational thermal energy
    E(trans)- is the translational thermal energy

Summary of contributions to the inner energy U:
Electronic energy                ...   -652.73824997 Eh
Zero point energy                ...      0.30146372 Eh     189.17 kcal/mol
Thermal vibrational correction   ...      0.01418975 Eh       8.90 kcal/mol
Thermal rotational correction    ...      0.00141627 Eh       0.89 kcal/mol
Thermal translational correction ...      0.00141627 Eh       0.89 kcal/mol
-----------------------------------------------------------------------
Total thermal energy                   -652.41976395 Eh

Summary of corrections to the electronic energy:
(perhaps to be used in another calculation)
Total thermal correction                  0.01702229 Eh      10.68 kcal/mol
Non-thermal (ZPE) correction              0.30146372 Eh     189.17 kcal/mol
-----------------------------------------------------------------------
Total correction                          0.31848602 Eh     199.85 kcal/mol

--------
ENTHALPY
--------

The enthalpy is H = U + kB*T
                kB is Boltzmann's constant
Total free energy                 ...   -652.41976395 Eh
Thermal Enthalpy correction       ...      0.00094421 Eh       0.59 kcal/mol
-----------------------------------------------------------------------
Total Enthalpy                    ...   -652.41881974 Eh

Note: Only C1 symmetry has been detected, increase convergence thresholds
      if your molecule has a higher symmetry. Symmetry factor of 1.0 is
      used for the rotational entropy correction.

Rotational constants in cm-1:     0.026065     0.018994     0.014465

                             ****ORCA TERMINATED NORMALLY****
TOTAL RUN TIME: 0 days 0 hours 31 minutes 34 seconds 909 msec
