                         Program Version 5.0.4 -  RELEASE  -
|  1> ! OPT FREQ B3LYP 6-31+G(d) D4 AUTOAUX
|  2>
|  3> %PAL NPROCS 4 END
|  4>
|  5> %maxcore 3375
|  6>
|  7> *xyzfile 1 1 /users/fjb15167/WWenergy/structures/Nke.xyz
|  8>
|  9>                          ****END OF INPUT****
 Total Charge           Charge          ....    1
 Multiplicity           Mult            ....    1
 Number of Electrons    NEL             ....  102
Dispersion correction           -0.048804175
FINAL SINGLE POINT ENERGY      -629.876005527495
Dispersion correction            ... Starting D4
Dispersion correction           -0.048940640
FINAL SINGLE POINT ENERGY      -629.880117325037
Dispersion correction            ... Starting D4
Dispersion correction           -0.047548844
FINAL SINGLE POINT ENERGY      -629.873477228822
Dispersion correction            ... Starting D4
FINAL SINGLE POINT ENERGY      -629.882982815749
FINAL SINGLE POINT ENERGY      -629.882489653663
FINAL SINGLE POINT ENERGY      -629.883658656814
FINAL SINGLE POINT ENERGY      -629.883751988677
FINAL SINGLE POINT ENERGY      -629.883860065029
FINAL SINGLE POINT ENERGY      -629.883870676204
Dispersion correction           -0.048498427
FINAL SINGLE POINT ENERGY      -629.883881889951
Dispersion correction            ... Starting D4
Dispersion correction           -0.048498223
FINAL SINGLE POINT ENERGY      -629.883884557959
Dispersion correction            ... Starting D4
                    ***********************HURRAY********************

CARTESIAN COORDINATES (ANGSTROEM)
---------------------------------
  C      0.284466    3.152289   -1.207811
  H      1.239501    2.820556   -1.634006
  H      0.494038    3.968421   -0.506097
  H     -0.337384    3.537812   -2.016899
  C     -0.482193    2.026776   -0.541834
  O     -1.608909    1.704516   -0.903226
  N      0.100681    1.336558    0.512388
  C     -0.774734    0.353855    1.150106
  H     -0.280490   -0.027731    2.050558
  H     -1.700752    0.839786    1.456190
  C      1.415668    1.609324    1.073124
  H      1.855269    2.448400    0.531469
  H      1.339429    1.919168    2.124518
  C      2.364766    0.400145    1.009571
  H      3.392956    0.710583    1.215524
  H      2.087362   -0.371000    1.733512
  C     -1.026457   -0.834905    0.216598
  N     -2.246251   -1.359203    0.127946
  O     -0.043403   -1.325957   -0.407540
  C     -2.481233   -2.523303   -0.736631
  H     -3.075650   -3.260518   -0.189304
  H     -3.028185   -2.211980   -1.634130
  H     -1.527245   -2.958934   -1.027219
  C     -3.436555   -0.724898    0.718770
  H     -3.378974   -0.705677    1.811408
  H     -3.565015    0.287819    0.325321
  H     -4.306575   -1.320180    0.439218
  N      2.289849   -0.256610   -0.336486
  H      2.467823    0.399800   -1.101641
  H      2.970816   -1.017241   -0.419853
  H      1.268381   -0.688670   -0.440543

 Multiplicity           Mult            ....    1
 Number of Electrons    NEL             ....  102
 Basis Dimension        Dim             ....  270

ORBITAL ENERGIES
----------------

  NO   OCC          E(Eh)            E(eV)
   0   2.0000     -19.270349      -524.3729
   1   2.0000     -19.250227      -523.8253
   2   2.0000     -14.576520      -396.6473
   3   2.0000     -14.509061      -394.8116
   4   2.0000     -14.507248      -394.7623
   5   2.0000     -10.432130      -283.8727
   6   2.0000     -10.422322      -283.6058
   7   2.0000     -10.399368      -282.9812
   8   2.0000     -10.384174      -282.5677
   9   2.0000     -10.367356      -282.1101
  10   2.0000     -10.331141      -281.1246
  11   2.0000     -10.322071      -280.8778
  12   2.0000     -10.309937      -280.5477
  13   2.0000      -1.189134       -32.3580
  14   2.0000      -1.172675       -31.9101
  15   2.0000      -1.137510       -30.9532
  16   2.0000      -1.078499       -29.3475
  17   2.0000      -1.073434       -29.2096
  18   2.0000      -0.926607       -25.2143
  19   2.0000      -0.898841       -24.4587
  20   2.0000      -0.857714       -23.3396
  21   2.0000      -0.843580       -22.9550
  22   2.0000      -0.820165       -22.3178
  23   2.0000      -0.801473       -21.8092
  24   2.0000      -0.735008       -20.0006
  25   2.0000      -0.725867       -19.7519
  26   2.0000      -0.699891       -19.0450
  27   2.0000      -0.678641       -18.4668
  28   2.0000      -0.650136       -17.6911
  29   2.0000      -0.648932       -17.6583
  30   2.0000      -0.641652       -17.4602
  31   2.0000      -0.615243       -16.7416
  32   2.0000      -0.599280       -16.3072
  33   2.0000      -0.596221       -16.2240
  34   2.0000      -0.591713       -16.1013
  35   2.0000      -0.576089       -15.6762
  36   2.0000      -0.561479       -15.2786
  37   2.0000      -0.552554       -15.0358
  38   2.0000      -0.537868       -14.6361
  39   2.0000      -0.535219       -14.5640
  40   2.0000      -0.532052       -14.4779
  41   2.0000      -0.527157       -14.3447
  42   2.0000      -0.526294       -14.3212
  43   2.0000      -0.516140       -14.0449
  44   2.0000      -0.506845       -13.7920
  45   2.0000      -0.500662       -13.6237
  46   2.0000      -0.483791       -13.1646
  47   2.0000      -0.420847       -11.4518
  48   2.0000      -0.393732       -10.7140
  49   2.0000      -0.390134       -10.6161
  50   2.0000      -0.381983       -10.3943
  51   0.0000      -0.152389        -4.1467
  52   0.0000      -0.133580        -3.6349
  53   0.0000      -0.119507        -3.2520
  54   0.0000      -0.113522        -3.0891
  55   0.0000      -0.108742        -2.9590

MULLIKEN ATOMIC CHARGES
-----------------------
   0 C :   -0.986938
   1 H :    0.212216
   2 H :    0.253190
   3 H :    0.275780
   4 C :    0.862393
   5 O :   -0.456468
   6 N :   -0.221827
   7 C :   -0.819811
   8 H :    0.244695
   9 H :    0.261012
  10 C :   -0.453836
  11 H :    0.240253
  12 H :    0.252078
  13 C :   -0.068266
  14 H :    0.252863
  15 H :    0.252455
  16 C :    0.602126
  17 N :   -0.006151
  18 O :   -0.582527
  19 C :   -0.535809
  20 H :    0.233751
  21 H :    0.244516
  22 H :    0.257504
  23 C :   -0.528207
  24 H :    0.230110
  25 H :    0.270838
  26 H :    0.233088
  27 N :   -1.076779
  28 H :    0.475407
  29 H :    0.489991
  30 H :    0.592354
Sum of atomic charges:    1.0000000

LOEWDIN ATOMIC CHARGES
----------------------
   0 C :   -0.455619
   1 H :    0.205187
   2 H :    0.221583
   3 H :    0.234697
   4 C :    0.120057
   5 O :   -0.350215
   6 N :   -0.340836
   7 C :   -0.205712
   8 H :    0.240683
   9 H :    0.249822
  10 C :   -0.248008
  11 H :    0.234433
  12 H :    0.230400
  13 C :   -0.254163
  14 H :    0.223546
  15 H :    0.229433
  16 C :    0.127922
  17 N :   -0.279615
  18 O :   -0.480960
  19 C :   -0.335075
  20 H :    0.212461
  21 H :    0.219299
  22 H :    0.237673
  23 C :   -0.353061
  24 H :    0.213566
  25 H :    0.234555
  26 H :    0.221486
  27 N :   -0.460992
  28 H :    0.345694
  29 H :    0.344204
  30 H :    0.417555

  Mayer bond orders larger than 0.100000
B(  0-C ,  1-H ) :   0.9606 B(  0-C ,  2-H ) :   0.9524 B(  0-C ,  3-H ) :   0.9827
B(  0-C ,  4-C ) :   0.3945 B(  4-C ,  5-O ) :   1.7885 B(  4-C ,  6-N ) :   1.0962
B(  6-N ,  7-C ) :   0.7837 B(  6-N , 10-C ) :   0.8286 B(  7-C ,  8-H ) :   0.9571
B(  7-C ,  9-H ) :   1.0976 B(  7-C , 10-C ) :   0.1011 B(  7-C , 16-C ) :   0.6092
B(  7-C , 17-N ) :  -0.2789 B(  7-C , 18-O ) :  -0.2644 B(  7-C , 27-N ) :   0.1058
B(  9-H , 16-C ) :  -0.1188 B( 10-C , 11-H ) :   0.9668 B( 10-C , 12-H ) :   0.9411
B( 10-C , 13-C ) :   0.7247 B( 13-C , 14-H ) :   0.9313 B( 13-C , 15-H ) :   0.9707
B( 13-C , 27-N ) :   0.5958 B( 16-C , 17-N ) :   1.4930 B( 16-C , 18-O ) :   1.8224
B( 16-C , 27-N ) :  -0.1400 B( 17-N , 19-C ) :   0.8212 B( 17-N , 23-C ) :   0.7579
B( 18-O , 27-N ) :   0.1165 B( 18-O , 30-H ) :   0.3118 B( 19-C , 20-H ) :   0.9219
B( 19-C , 21-H ) :   0.9344 B( 19-C , 22-H ) :   0.9407 B( 23-C , 24-H ) :   0.9295
B( 23-C , 25-H ) :   0.9127 B( 23-C , 26-H ) :   0.9383 B( 27-N , 28-H ) :   0.7307
B( 27-N , 29-H ) :   0.7212 B( 27-N , 30-H ) :   0.3252

Dispersion correction           -0.048494760
FINAL SINGLE POINT ENERGY      -629.883885555181

DIPOLE MOMENT
-------------
                                X             Y             Z
Electronic contribution:     -0.48742      -0.03653      -1.08978
Nuclear contribution   :      3.17945      -0.22233       1.97224
                        -----------------------------------------
Total Dipole Moment    :      2.69204      -0.25886       0.88246
                        -----------------------------------------
Magnitude (a.u.)       :      2.84479
Magnitude (Debye)      :      7.23088

Dispersion correction in the Hessian             ... Starting D4

VIBRATIONAL FREQUENCIES
-----------------------

Scaling factor for frequencies =  1.000000000  (already applied!)

   0:         0.00 cm**-1
   1:         0.00 cm**-1
   2:         0.00 cm**-1
   3:         0.00 cm**-1
   4:         0.00 cm**-1
   5:         0.00 cm**-1
   6:        50.05 cm**-1
   7:        61.97 cm**-1
   8:        70.03 cm**-1
   9:        98.81 cm**-1
  10:       108.77 cm**-1
  11:       124.40 cm**-1
  12:       153.44 cm**-1
  13:       159.95 cm**-1
  14:       176.35 cm**-1
  15:       201.81 cm**-1
  16:       255.41 cm**-1
  17:       277.68 cm**-1
  18:       288.60 cm**-1
  19:       321.07 cm**-1
  20:       335.42 cm**-1
  21:       382.48 cm**-1
  22:       430.05 cm**-1
  23:       440.04 cm**-1
  24:       450.68 cm**-1
  25:       501.14 cm**-1
  26:       523.44 cm**-1
  27:       581.23 cm**-1
  28:       600.82 cm**-1
  29:       613.90 cm**-1
  30:       672.08 cm**-1
  31:       755.47 cm**-1
  32:       831.85 cm**-1
  33:       851.47 cm**-1
  34:       894.89 cm**-1
  35:       953.57 cm**-1
  36:       974.54 cm**-1
  37:       995.39 cm**-1
  38:      1004.15 cm**-1
  39:      1047.21 cm**-1
  40:      1061.58 cm**-1
  41:      1081.54 cm**-1
  42:      1085.38 cm**-1
  43:      1126.08 cm**-1
  44:      1144.41 cm**-1
  45:      1174.24 cm**-1
  46:      1184.83 cm**-1
  47:      1205.29 cm**-1
  48:      1230.75 cm**-1
  49:      1274.98 cm**-1
  50:      1301.57 cm**-1
  51:      1321.06 cm**-1
  52:      1344.80 cm**-1
  53:      1379.13 cm**-1
  54:      1407.35 cm**-1
  55:      1418.85 cm**-1
  56:      1424.17 cm**-1
  57:      1451.97 cm**-1
  58:      1457.89 cm**-1
  59:      1473.65 cm**-1
  60:      1486.49 cm**-1
  61:      1488.11 cm**-1
  62:      1496.41 cm**-1
  63:      1507.20 cm**-1
  64:      1516.53 cm**-1
  65:      1521.13 cm**-1
  66:      1522.64 cm**-1
  67:      1526.76 cm**-1
  68:      1530.38 cm**-1
  69:      1544.75 cm**-1
  70:      1598.73 cm**-1
  71:      1655.49 cm**-1
  72:      1694.84 cm**-1
  73:      1717.95 cm**-1
  74:      1747.03 cm**-1
  75:      2098.75 cm**-1
  76:      3050.51 cm**-1
  77:      3051.92 cm**-1
  78:      3064.16 cm**-1
  79:      3069.41 cm**-1
  80:      3084.53 cm**-1
  81:      3100.38 cm**-1
  82:      3110.44 cm**-1
  83:      3131.64 cm**-1
  84:      3141.74 cm**-1
  85:      3143.29 cm**-1
  86:      3159.52 cm**-1
  87:      3164.63 cm**-1
  88:      3173.52 cm**-1
  89:      3177.16 cm**-1
  90:      3204.91 cm**-1
  91:      3453.76 cm**-1
  92:      3523.30 cm**-1

IR SPECTRUM
-----------

 Mode   freq       eps      Int      T**2         TX        TY        TZ
       cm**-1   L/(mol*cm) km/mol    a.u.
----------------------------------------------------------------------------
  6:     50.05   0.000699    3.53  0.004361  (-0.020123 -0.023457  0.058358)
  7:     61.97   0.000398    2.01  0.002007  ( 0.011669  0.041119 -0.013410)
  8:     70.03   0.001734    8.76  0.007726  ( 0.024423 -0.062422  0.056858)
  9:     98.81   0.001377    6.96  0.004348  ( 0.029912 -0.057710 -0.011072)
 10:    108.77   0.000870    4.40  0.002497  (-0.009743 -0.000637 -0.049002)
 11:    124.40   0.000364    1.84  0.000912  (-0.004116  0.017269  0.024439)
 12:    153.44   0.000479    2.42  0.000974  ( 0.002688  0.025114  0.018332)
 13:    159.95   0.000333    1.68  0.000650  (-0.024095 -0.008284 -0.000847)
 14:    176.35   0.000377    1.91  0.000667  (-0.004732 -0.022944 -0.010889)
 15:    201.81   0.001086    5.49  0.001679  ( 0.021685  0.034758 -0.000646)
 16:    255.41   0.015693   79.31  0.019174  (-0.135903 -0.025930  0.005694)
 17:    277.68   0.000464    2.35  0.000522  (-0.008113  0.021173 -0.002750)
 18:    288.60   0.002672   13.50  0.002889  ( 0.008136  0.051401 -0.013444)
 19:    321.07   0.002909   14.70  0.002828  ( 0.053140  0.000183  0.001944)
 20:    335.42   0.001406    7.11  0.001308  ( 0.019526  0.001806 -0.030395)
 21:    382.48   0.003635   18.37  0.002965  ( 0.052971  0.003041  0.012258)
 22:    430.05   0.000236    1.19  0.000171  ( 0.010109  0.006666  0.004934)
 23:    440.04   0.009586   48.44  0.006798  (-0.061318 -0.054961  0.004189)
 24:    450.68   0.005819   29.41  0.004030  (-0.061865 -0.012609  0.006577)
 25:    501.14   0.003096   15.65  0.001928  (-0.029019 -0.016457  0.028548)
 26:    523.44   0.001448    7.32  0.000863  ( 0.025429  0.013586 -0.005674)
 27:    581.23   0.006188   31.27  0.003323  (-0.054174  0.001894 -0.019600)
 28:    600.82   0.001243    6.28  0.000646  (-0.008704  0.011750  0.020781)
 29:    613.90   0.001768    8.94  0.000899  (-0.008383 -0.022871  0.017479)
 30:    672.08   0.013607   68.77  0.006318  ( 0.070491  0.036494 -0.004164)
 31:    755.47   0.000221    1.12  0.000091  (-0.000653  0.009472 -0.001019)
 32:    831.85   0.004675   23.62  0.001754  ( 0.036097 -0.021156 -0.001761)
 33:    851.47   0.002549   12.88  0.000934  ( 0.023786  0.019123 -0.001661)
 34:    894.89   0.003188   16.11  0.001112  ( 0.032487  0.001595 -0.007333)
 35:    953.57   0.001525    7.71  0.000499  ( 0.009273 -0.011770 -0.016570)
 36:    974.54   0.003885   19.63  0.001244  (-0.032131 -0.010294 -0.010272)
 37:    995.39   0.000136    0.69  0.000043  ( 0.006344 -0.000386 -0.001496)
 38:   1004.15   0.003720   18.80  0.001156  ( 0.020569 -0.015810  0.021975)
 39:   1047.21   0.002633   13.31  0.000785  ( 0.001713 -0.003111  0.027785)
 40:   1061.58   0.000546    2.76  0.000160  (-0.003118  0.010168  0.006878)
 41:   1081.54   0.003892   19.67  0.001123  ( 0.014955 -0.026180  0.014627)
 42:   1085.38   0.004134   20.89  0.001188  (-0.027907  0.011905  0.016370)
 43:   1126.08   0.000609    3.08  0.000169  (-0.007985 -0.010172  0.001196)
 44:   1144.41   0.009253   46.76  0.002523  ( 0.046909  0.011060  0.014153)
 45:   1174.24   0.001819    9.19  0.000483  ( 0.014153  0.013806 -0.009619)
 46:   1184.83   0.009855   49.80  0.002596  (-0.000613  0.045481 -0.022951)
 47:   1205.29   0.004029   20.36  0.001043  (-0.027704 -0.006701 -0.015188)
 48:   1230.75   0.006828   34.51  0.001731  ( 0.037369 -0.009829  0.015438)
 49:   1274.98   0.010214   51.62  0.002500  (-0.036518 -0.033788 -0.004971)
 50:   1301.57   0.012565   63.50  0.003013  ( 0.003183 -0.039766  0.037697)
 51:   1321.06   0.012902   65.20  0.003048  (-0.050252 -0.007363  0.021638)
 52:   1344.80   0.002171   10.97  0.000504  (-0.016497  0.013838  0.006339)
 53:   1379.13   0.006146   31.06  0.001391  (-0.008864  0.026267 -0.024944)
 54:   1407.35   0.009265   46.82  0.002054  (-0.037870 -0.016077  0.019018)
 55:   1418.85   0.004603   23.26  0.001012  ( 0.030616  0.008605  0.000968)
 56:   1424.17   0.011028   55.73  0.002417  ( 0.017728  0.036700 -0.027483)
 57:   1451.97   0.020158  101.87  0.004333  ( 0.027248 -0.033087  0.049953)
 58:   1457.89   0.009668   48.86  0.002069  ( 0.044877 -0.006525 -0.003589)
 59:   1473.65   0.005338   26.98  0.001130  ( 0.022647  0.024814 -0.001364)
 60:   1486.49   0.021740  109.86  0.004564  (-0.054506  0.018680  0.035271)
 61:   1488.11   0.009205   46.52  0.001930  (-0.043610 -0.005269  0.000930)
 62:   1496.41   0.008393   42.42  0.001750  (-0.029401  0.018071 -0.023651)
 63:   1507.20   0.002616   13.22  0.000542  (-0.011346  0.013666  0.015039)
 64:   1516.53   0.009497   47.99  0.001954  ( 0.028358  0.023275 -0.024665)
 65:   1521.13   0.004090   20.67  0.000839  ( 0.028710  0.003583 -0.001397)
 66:   1522.64   0.002056   10.39  0.000421  ( 0.019335 -0.003662  0.005846)
 67:   1526.76   0.001382    6.99  0.000283  (-0.004197  0.008735 -0.013735)
 68:   1530.38   0.002520   12.74  0.000514  ( 0.021131 -0.007570 -0.003182)
 69:   1544.75   0.016711   84.45  0.003376  (-0.054786  0.014348  0.012980)
 70:   1598.73   0.132037  667.26  0.025773  ( 0.153874  0.026502 -0.037329)
 71:   1655.49   0.032188  162.66  0.006068  ( 0.061193  0.038581  0.028887)
 72:   1694.84   0.047113  238.09  0.008675  (-0.092489  0.010423  0.003448)
 73:   1717.95   0.010707   54.11  0.001945  ( 0.020299  0.035632 -0.016225)
 74:   1747.03   0.056211  284.07  0.010041  (-0.091243 -0.019294 -0.036648)
 75:   2098.75   0.383763  1939.38  0.057062  ( 0.223550  0.083006  0.014037)
 76:   3050.51   0.002409   12.17  0.000246  ( 0.003902  0.008930  0.012305)
 77:   3051.92   0.003630   18.34  0.000371  ( 0.017972  0.001824  0.006698)
 78:   3064.16   0.003670   18.55  0.000374  (-0.004680 -0.012804 -0.013709)
 79:   3069.41   0.003198   16.16  0.000325  (-0.016574 -0.001728  0.006889)
 80:   3084.53   0.001366    6.90  0.000138  (-0.001558  0.005522 -0.010260)
 81:   3100.38   0.001405    7.10  0.000141  (-0.004270  0.003802 -0.010429)
 82:   3110.44   0.001528    7.72  0.000153  (-0.008024  0.006866  0.006466)
 83:   3131.64   0.002122   10.72  0.000211  (-0.002013 -0.010428  0.009930)
 84:   3141.74   0.000749    3.78  0.000074  (-0.003202 -0.000033 -0.008008)
 85:   3143.29   0.000068    0.34  0.000007  (-0.001258  0.000061 -0.002265)
 86:   3159.52   0.001864    9.42  0.000184  ( 0.010534  0.007555 -0.004008)
 87:   3164.63   0.000705    3.56  0.000069  ( 0.006937 -0.001795 -0.004258)
 88:   3173.52   0.000703    3.55  0.000069  ( 0.004998  0.005557  0.003638)
 89:   3177.16   0.000120    0.61  0.000012  ( 0.003059 -0.001376  0.000759)
 90:   3204.91   0.000192    0.97  0.000019  (-0.000663  0.003834  0.001883)
 91:   3453.76   0.009454   47.78  0.000854  (-0.024551  0.005514  0.014867)
 92:   3523.30   0.011172   56.46  0.000990  (-0.012129  0.027136 -0.010299)

--------------------------
THERMOCHEMISTRY AT 298.15K
--------------------------

Temperature         ... 298.15 K
Pressure            ... 1.00 atm
Total Mass          ... 188.25 AMU

Throughout the following assumptions are being made:
  (1) The electronic state is orbitally nondegenerate
  (2) There are no thermally accessible electronically excited states
  (3) Hindered rotations indicated by low frequency modes are not
      treated as such but are treated as vibrations and this may
      cause some error
  (4) All equations used are the standard statistical mechanics
      equations for an ideal gas
  (5) All vibrations are strictly harmonic

freq.      50.05  E(vib)   ...       0.52
freq.      61.97  E(vib)   ...       0.51
freq.      70.03  E(vib)   ...       0.50
freq.      98.81  E(vib)   ...       0.46
freq.     108.77  E(vib)   ...       0.45
freq.     124.40  E(vib)   ...       0.43
freq.     153.44  E(vib)   ...       0.40
freq.     159.95  E(vib)   ...       0.39
freq.     176.35  E(vib)   ...       0.38
freq.     201.81  E(vib)   ...       0.35
freq.     255.41  E(vib)   ...       0.30
freq.     277.68  E(vib)   ...       0.28
freq.     288.60  E(vib)   ...       0.27
freq.     321.07  E(vib)   ...       0.25
freq.     335.42  E(vib)   ...       0.24
freq.     382.48  E(vib)   ...       0.21
freq.     430.05  E(vib)   ...       0.18
freq.     440.04  E(vib)   ...       0.17
freq.     450.68  E(vib)   ...       0.17
freq.     501.14  E(vib)   ...       0.14
freq.     523.44  E(vib)   ...       0.13
freq.     581.23  E(vib)   ...       0.11
freq.     600.82  E(vib)   ...       0.10
freq.     613.90  E(vib)   ...       0.10
freq.     672.08  E(vib)   ...       0.08
freq.     755.47  E(vib)   ...       0.06
freq.     831.85  E(vib)   ...       0.04
freq.     851.47  E(vib)   ...       0.04
freq.     894.89  E(vib)   ...       0.03
freq.     953.57  E(vib)   ...       0.03
freq.     974.54  E(vib)   ...       0.03
freq.     995.39  E(vib)   ...       0.02
freq.    1004.15  E(vib)   ...       0.02
freq.    1047.21  E(vib)   ...       0.02
freq.    1061.58  E(vib)   ...       0.02
freq.    1081.54  E(vib)   ...       0.02
freq.    1085.38  E(vib)   ...       0.02
freq.    1126.08  E(vib)   ...       0.01
freq.    1144.41  E(vib)   ...       0.01
freq.    1174.24  E(vib)   ...       0.01
freq.    1184.83  E(vib)   ...       0.01
freq.    1205.29  E(vib)   ...       0.01
freq.    1230.75  E(vib)   ...       0.01
freq.    1274.98  E(vib)   ...       0.01
freq.    1301.57  E(vib)   ...       0.01
freq.    1321.06  E(vib)   ...       0.01
freq.    1344.80  E(vib)   ...       0.01
freq.    1379.13  E(vib)   ...       0.01
freq.    1407.35  E(vib)   ...       0.00
freq.    1418.85  E(vib)   ...       0.00
freq.    1424.17  E(vib)   ...       0.00
freq.    1451.97  E(vib)   ...       0.00
freq.    1457.89  E(vib)   ...       0.00
freq.    1473.65  E(vib)   ...       0.00
freq.    1486.49  E(vib)   ...       0.00
freq.    1488.11  E(vib)   ...       0.00
freq.    1496.41  E(vib)   ...       0.00
freq.    1507.20  E(vib)   ...       0.00
freq.    1516.53  E(vib)   ...       0.00
freq.    1521.13  E(vib)   ...       0.00
freq.    1522.64  E(vib)   ...       0.00
freq.    1526.76  E(vib)   ...       0.00
freq.    1530.38  E(vib)   ...       0.00
freq.    1544.75  E(vib)   ...       0.00
freq.    1598.73  E(vib)   ...       0.00
freq.    1655.49  E(vib)   ...       0.00
freq.    1694.84  E(vib)   ...       0.00
freq.    1717.95  E(vib)   ...       0.00
freq.    1747.03  E(vib)   ...       0.00
freq.    2098.75  E(vib)   ...       0.00
freq.    3050.51  E(vib)   ...       0.00
freq.    3051.92  E(vib)   ...       0.00
freq.    3064.16  E(vib)   ...       0.00
freq.    3069.41  E(vib)   ...       0.00
freq.    3084.53  E(vib)   ...       0.00
freq.    3100.38  E(vib)   ...       0.00
freq.    3110.44  E(vib)   ...       0.00
freq.    3131.64  E(vib)   ...       0.00
freq.    3141.74  E(vib)   ...       0.00
freq.    3143.29  E(vib)   ...       0.00
freq.    3159.52  E(vib)   ...       0.00
freq.    3164.63  E(vib)   ...       0.00
freq.    3173.52  E(vib)   ...       0.00
freq.    3177.16  E(vib)   ...       0.00
freq.    3204.91  E(vib)   ...       0.00
freq.    3453.76  E(vib)   ...       0.00
freq.    3523.30  E(vib)   ...       0.00

------------
INNER ENERGY
------------

The inner energy is: U= E(el) + E(ZPE) + E(vib) + E(rot) + E(trans)
    E(el)   - is the total energy from the electronic structure calculation
              = E(kin-el) + E(nuc-el) + E(el-el) + E(nuc-nuc)
    E(ZPE)  - the the zero temperature vibrational energy from the frequency calculation
    E(vib)  - the the finite temperature correction to E(ZPE) due to population
              of excited vibrational states
    E(rot)  - is the rotational thermal energy
    E(trans)- is the translational thermal energy

Summary of contributions to the inner energy U:
Electronic energy                ...   -629.88388556 Eh
Zero point energy                ...      0.27610401 Eh     173.26 kcal/mol
Thermal vibrational correction   ...      0.01213090 Eh       7.61 kcal/mol
Thermal rotational correction    ...      0.00141627 Eh       0.89 kcal/mol
Thermal translational correction ...      0.00141627 Eh       0.89 kcal/mol
-----------------------------------------------------------------------
Total thermal energy                   -629.59281810 Eh

Summary of corrections to the electronic energy:
(perhaps to be used in another calculation)
Total thermal correction                  0.01496344 Eh       9.39 kcal/mol
Non-thermal (ZPE) correction              0.27610401 Eh     173.26 kcal/mol
-----------------------------------------------------------------------
Total correction                          0.29106746 Eh     182.65 kcal/mol

--------
ENTHALPY
--------

The enthalpy is H = U + kB*T
                kB is Boltzmann's constant
Total free energy                 ...   -629.59281810 Eh
Thermal Enthalpy correction       ...      0.00094421 Eh       0.59 kcal/mol
-----------------------------------------------------------------------
Total Enthalpy                    ...   -629.59187389 Eh

Note: Only C1 symmetry has been detected, increase convergence thresholds
      if your molecule has a higher symmetry. Symmetry factor of 1.0 is
      used for the rotational entropy correction.

Note: Rotational entropy computed according to Herzberg
Infrared and Raman Spectra, Chapter V,1, Van Nostrand Reinhold, 1945
Point Group:  C1, Symmetry Number:   1
Rotational constants in cm-1:     0.036729     0.019472     0.015545

Vibrational entropy computed according to the QRRHO of S. Grimme
Chem.Eur.J. 2012 18 9955

                             ****ORCA TERMINATED NORMALLY****
TOTAL RUN TIME: 0 days 0 hours 38 minutes 29 seconds 724 msec
