                         Program Version 5.0.4 -  RELEASE  -
|  1> ! OPT FREQ B3LYP 6-31G(d) D4 AUTOAUX
|  2> ! CPCM
|  3>
|  4> %cpcm
|  5> epsilon 9.8629
|  6> refrac  1.4295
|  7> end
|  8>
|  9> %PAL NPROCS 4 END
| 10>
| 11> %maxcore 3375
| 12>
| 13> *xyzfile 0 1 /users/fjb15167/WWenergy/structures/Nfnap.xyz
| 14>
| 15>                          ****END OF INPUT****
 Total Charge           Charge          ....    0
 Multiplicity           Mult            ....    1
 Number of Electrons    NEL             ....  152
Dispersion correction           -0.094968134
FINAL SINGLE POINT ENERGY      -919.359577906236
Dispersion correction            ... Starting D4
Dispersion correction           -0.092628164
FINAL SINGLE POINT ENERGY      -919.360417911894
Dispersion correction            ... Starting D4
Dispersion correction           -0.094661193
FINAL SINGLE POINT ENERGY      -919.360370800841
Dispersion correction            ... Starting D4
FINAL SINGLE POINT ENERGY      -919.360811534458
FINAL SINGLE POINT ENERGY      -919.360719120591
FINAL SINGLE POINT ENERGY      -919.361105687928
FINAL SINGLE POINT ENERGY      -919.361135921546
FINAL SINGLE POINT ENERGY      -919.361161777421
FINAL SINGLE POINT ENERGY      -919.361183597359
FINAL SINGLE POINT ENERGY      -919.361193749067
FINAL SINGLE POINT ENERGY      -919.361307979824
FINAL SINGLE POINT ENERGY      -919.361334758078
FINAL SINGLE POINT ENERGY      -919.361354032401
FINAL SINGLE POINT ENERGY      -919.361361202298
FINAL SINGLE POINT ENERGY      -919.361361802026
FINAL SINGLE POINT ENERGY      -919.361363720417
FINAL SINGLE POINT ENERGY      -919.361364653074
Dispersion correction           -0.093677394
FINAL SINGLE POINT ENERGY      -919.361364369761
Dispersion correction            ... Starting D4
Dispersion correction           -0.093663843
FINAL SINGLE POINT ENERGY      -919.361364531267
Dispersion correction            ... Starting D4
                    ***********************HURRAY********************

CARTESIAN COORDINATES (ANGSTROEM)
---------------------------------
  C      4.427671   -0.051371    0.321024
  H      4.772701   -0.928734   -0.236595
  H      4.185675   -0.376010    1.339574
  H      5.235411    0.680195    0.372906
  C      3.245885    0.619967   -0.359053
  O      3.310529    1.807367   -0.696856
  N      2.119304   -0.125226   -0.589116
  C      2.022454   -1.554853   -0.306308
  H      2.167511   -2.134457   -1.224942
  H      2.800560   -1.847055    0.399066
  C      0.646262   -1.989992    0.224249
  N      0.211092   -1.478524    1.403373
  O     -0.018645   -2.788409   -0.446210
  C      0.989092   -0.628902    2.293843
  H      0.650478    0.411834    2.236507
  H      0.861962   -0.986154    3.322153
  H      2.049067   -0.667972    2.053621
  C     -1.150095   -1.758590    1.845513
  H     -1.643289   -0.820207    2.120284
  H     -1.697585   -2.230927    1.032200
  H     -1.142788   -2.423295    2.719080
  C      1.060701    0.454203   -1.437744
  H      1.534050    1.238843   -2.031481
  H      0.733870   -0.327874   -2.124184
  C     -0.096137    1.047744   -0.649545
  C     -1.436955    0.553906   -0.746706
  C      0.177867    2.108995    0.195335
  C     -1.827736   -0.507607   -1.611002
  C     -2.454201    1.157625    0.071466
  C     -0.827239    2.703987    0.989706
  H      1.194425    2.486722    0.244898
  C     -3.130183   -0.954076   -1.654081
  H     -1.092714   -0.994243   -2.239226
  C     -3.787669    0.669729    0.006075
  C     -2.117955    2.231337    0.935935
  H     -0.571807    3.534367    1.642750
  C     -4.123994   -0.364331   -0.836715
  H     -3.396821   -1.769627   -2.321139
  H     -4.539786    1.137171    0.637603
  H     -2.900977    2.675095    1.546323
  H     -5.146990   -0.728650   -0.879583

 Multiplicity           Mult            ....    1
 Number of Electrons    NEL             ....  152
 Basis Dimension        Dim             ....  334

ORBITAL ENERGIES
----------------

  NO   OCC          E(Eh)            E(eV)
   0   2.0000     -19.109626      -519.9994
   1   2.0000     -19.106384      -519.9111
   2   2.0000     -14.361667      -390.8008
   3   2.0000     -14.358987      -390.7279
   4   2.0000     -10.284445      -279.8540
   5   2.0000     -10.279861      -279.7292
   6   2.0000     -10.219221      -278.0791
   7   2.0000     -10.209875      -277.8248
   8   2.0000     -10.201867      -277.6069
   9   2.0000     -10.193908      -277.3903
  10   2.0000     -10.190282      -277.2917
  11   2.0000     -10.188898      -277.2540
  12   2.0000     -10.187838      -277.2252
  13   2.0000     -10.178334      -276.9665
  14   2.0000     -10.178274      -276.9649
  15   2.0000     -10.177695      -276.9492
  16   2.0000     -10.177595      -276.9464
  17   2.0000     -10.177455      -276.9426
  18   2.0000     -10.176824      -276.9255
  19   2.0000     -10.175922      -276.9009
  20   2.0000     -10.173783      -276.8427
  21   2.0000      -1.032356       -28.0918
  22   2.0000      -1.026463       -27.9315
  23   2.0000      -0.935950       -25.4685
  24   2.0000      -0.925880       -25.1945
  25   2.0000      -0.867331       -23.6013
  26   2.0000      -0.815451       -22.1895
  27   2.0000      -0.781688       -21.2708
  28   2.0000      -0.744615       -20.2620
  29   2.0000      -0.743317       -20.2267
  30   2.0000      -0.733346       -19.9553
  31   2.0000      -0.717440       -19.5225
  32   2.0000      -0.709826       -19.3153
  33   2.0000      -0.681601       -18.5473
  34   2.0000      -0.670119       -18.2349
  35   2.0000      -0.615023       -16.7356
  36   2.0000      -0.605967       -16.4892
  37   2.0000      -0.579910       -15.7802
  38   2.0000      -0.551899       -15.0179
  39   2.0000      -0.538820       -14.6620
  40   2.0000      -0.509744       -13.8708
  41   2.0000      -0.507033       -13.7971
  42   2.0000      -0.501540       -13.6476
  43   2.0000      -0.491541       -13.3755
  44   2.0000      -0.483433       -13.1549
  45   2.0000      -0.474730       -12.9181
  46   2.0000      -0.465881       -12.6773
  47   2.0000      -0.452060       -12.3012
  48   2.0000      -0.446132       -12.1399
  49   2.0000      -0.436541       -11.8789
  50   2.0000      -0.429305       -11.6820
  51   2.0000      -0.421106       -11.4589
  52   2.0000      -0.410426       -11.1683
  53   2.0000      -0.404828       -11.0159
  54   2.0000      -0.402728       -10.9588
  55   2.0000      -0.398125       -10.8335
  56   2.0000      -0.397513       -10.8169
  57   2.0000      -0.395204       -10.7540
  58   2.0000      -0.392740       -10.6870
  59   2.0000      -0.391434       -10.6515
  60   2.0000      -0.378771       -10.3069
  61   2.0000      -0.372773       -10.1437
  62   2.0000      -0.372304       -10.1309
  63   2.0000      -0.362194        -9.8558
  64   2.0000      -0.358369        -9.7517
  65   2.0000      -0.351217        -9.5571
  66   2.0000      -0.329332        -8.9616
  67   2.0000      -0.322471        -8.7749
  68   2.0000      -0.318232        -8.6595
  69   2.0000      -0.276626        -7.5274
  70   2.0000      -0.260224        -7.0811
  71   2.0000      -0.247924        -6.7464
  72   2.0000      -0.242559        -6.6004
  73   2.0000      -0.240462        -6.5433
  74   2.0000      -0.232461        -6.3256
  75   2.0000      -0.206351        -5.6151
  76   0.0000      -0.034994        -0.9522
  77   0.0000      -0.004929        -0.1341
  78   0.0000       0.018442         0.5018
  79   0.0000       0.025155         0.6845
  80   0.0000       0.034153         0.9293

MULLIKEN ATOMIC CHARGES
-----------------------
   0 C :   -0.573071
   1 H :    0.194382
   2 H :    0.200103
   3 H :    0.184687
   4 C :    0.540121
   5 O :   -0.528642
   6 N :   -0.363193
   7 C :   -0.256768
   8 H :    0.184580
   9 H :    0.206008
  10 C :    0.526485
  11 N :   -0.350181
  12 O :   -0.535479
  13 C :   -0.336044
  14 H :    0.180691
  15 H :    0.173635
  16 H :    0.179579
  17 C :   -0.331920
  18 H :    0.172062
  19 H :    0.188088
  20 H :    0.166711
  21 C :   -0.260058
  22 H :    0.190841
  23 H :    0.183142
  24 C :    0.097738
  25 C :    0.075688
  26 C :   -0.211673
  27 C :   -0.196859
  28 C :    0.124572
  29 C :   -0.147536
  30 H :    0.156893
  31 C :   -0.159482
  32 H :    0.154906
  33 C :   -0.214943
  34 C :   -0.210551
  35 H :    0.148857
  36 C :   -0.150174
  37 H :    0.148292
  38 H :    0.149948
  39 H :    0.149877
  40 H :    0.148683
Sum of atomic charges:   -0.0000000

LOEWDIN ATOMIC CHARGES
----------------------
   0 C :   -0.395598
   1 H :    0.154866
   2 H :    0.154114
   3 H :    0.152140
   4 C :    0.114739
   5 O :   -0.328886
   6 N :   -0.071251
   7 C :   -0.178471
   8 H :    0.145143
   9 H :    0.160009
  10 C :    0.094546
  11 N :   -0.061342
  12 O :   -0.327112
  13 C :   -0.277730
  14 H :    0.137824
  15 H :    0.137198
  16 H :    0.140914
  17 C :   -0.278662
  18 H :    0.136445
  19 H :    0.149411
  20 H :    0.131196
  21 C :   -0.151989
  22 H :    0.155147
  23 H :    0.141685
  24 C :   -0.027370
  25 C :   -0.020100
  26 C :   -0.138461
  27 C :   -0.128687
  28 C :   -0.019377
  29 C :   -0.140551
  30 H :    0.144844
  31 C :   -0.140158
  32 H :    0.141267
  33 C :   -0.133277
  34 C :   -0.133817
  35 H :    0.140397
  36 C :   -0.140000
  37 H :    0.140123
  38 H :    0.140172
  39 H :    0.140366
  40 H :    0.140294

  Mayer bond orders larger than 0.100000
B(  0-C ,  1-H ) :   0.9224 B(  0-C ,  2-H ) :   0.9155 B(  0-C ,  3-H ) :   0.9369
B(  0-C ,  4-C ) :   0.9917 B(  4-C ,  5-O ) :   1.7472 B(  4-C ,  6-N ) :   1.1532
B(  6-N ,  7-C ) :   0.9506 B(  6-N , 21-C ) :   0.9298 B(  7-C ,  8-H ) :   0.9130
B(  7-C ,  9-H ) :   0.9003 B(  7-C , 10-C ) :   0.9345 B( 10-C , 11-N ) :   1.2001
B( 10-C , 12-O ) :   1.7514 B( 11-N , 12-O ) :   0.1012 B( 11-N , 13-C ) :   0.9543
B( 11-N , 17-C ) :   0.9447 B( 13-C , 14-H ) :   0.9159 B( 13-C , 15-H ) :   0.9337
B( 13-C , 16-H ) :   0.9261 B( 17-C , 18-H ) :   0.9312 B( 17-C , 19-H ) :   0.9235
B( 17-C , 20-H ) :   0.9363 B( 21-C , 22-H ) :   0.9054 B( 21-C , 23-H ) :   0.9081
B( 21-C , 24-C ) :   0.9644 B( 24-C , 25-C ) :   1.2717 B( 24-C , 26-C ) :   1.5184
B( 25-C , 27-C ) :   1.2781 B( 25-C , 28-C ) :   1.2953 B( 26-C , 29-C ) :   1.2992
B( 26-C , 30-H ) :   0.9008 B( 27-C , 31-C ) :   1.5391 B( 27-C , 32-H ) :   0.9053
B( 28-C , 33-C ) :   1.2759 B( 28-C , 34-C ) :   1.2808 B( 29-C , 34-C ) :   1.5232
B( 29-C , 35-H ) :   0.9271 B( 31-C , 36-C ) :   1.3172 B( 31-C , 37-H ) :   0.9272
B( 33-C , 36-C ) :   1.5382 B( 33-C , 38-H ) :   0.9209 B( 34-C , 39-H ) :   0.9213
B( 36-C , 40-H ) :   0.9270

Dispersion correction           -0.093651268
FINAL SINGLE POINT ENERGY      -919.361364258104

DIPOLE MOMENT
-------------
                                X             Y             Z
Electronic contribution:     -4.39838       3.47743      -6.96080
Nuclear contribution   :      4.61015      -4.01665       8.51662
                        -----------------------------------------
Total Dipole Moment    :      0.21176      -0.53921       1.55582
                        -----------------------------------------
Magnitude (a.u.)       :      1.66017
Magnitude (Debye)      :      4.21982

Dispersion correction in the Hessian             ... Starting D4

VIBRATIONAL FREQUENCIES
-----------------------

Scaling factor for frequencies =  1.000000000  (already applied!)

   0:         0.00 cm**-1
   1:         0.00 cm**-1
   2:         0.00 cm**-1
   3:         0.00 cm**-1
   4:         0.00 cm**-1
   5:         0.00 cm**-1
   6:        27.05 cm**-1
   7:        43.06 cm**-1
   8:        52.80 cm**-1
   9:        72.87 cm**-1
  10:        78.08 cm**-1
  11:       100.56 cm**-1
  12:       111.73 cm**-1
  13:       120.18 cm**-1
  14:       133.64 cm**-1
  15:       156.65 cm**-1
  16:       165.32 cm**-1
  17:       187.15 cm**-1
  18:       195.56 cm**-1
  19:       204.97 cm**-1
  20:       252.11 cm**-1
  21:       259.09 cm**-1
  22:       279.21 cm**-1
  23:       311.85 cm**-1
  24:       345.43 cm**-1
  25:       386.96 cm**-1
  26:       411.56 cm**-1
  27:       420.47 cm**-1
  28:       433.77 cm**-1
  29:       457.15 cm**-1
  30:       479.61 cm**-1
  31:       495.01 cm**-1
  32:       504.31 cm**-1
  33:       517.97 cm**-1
  34:       556.62 cm**-1
  35:       567.66 cm**-1
  36:       593.38 cm**-1
  37:       619.63 cm**-1
  38:       623.67 cm**-1
  39:       663.04 cm**-1
  40:       699.52 cm**-1
  41:       735.00 cm**-1
  42:       747.57 cm**-1
  43:       757.47 cm**-1
  44:       795.39 cm**-1
  45:       802.58 cm**-1
  46:       814.55 cm**-1
  47:       831.79 cm**-1
  48:       874.18 cm**-1
  49:       876.16 cm**-1
  50:       926.47 cm**-1
  51:       947.89 cm**-1
  52:       955.53 cm**-1
  53:       973.58 cm**-1
  54:       987.71 cm**-1
  55:       993.51 cm**-1
  56:       995.25 cm**-1
  57:      1008.88 cm**-1
  58:      1042.89 cm**-1
  59:      1060.62 cm**-1
  60:      1062.03 cm**-1
  61:      1088.50 cm**-1
  62:      1104.74 cm**-1
  63:      1114.71 cm**-1
  64:      1136.46 cm**-1
  65:      1173.82 cm**-1
  66:      1180.93 cm**-1
  67:      1189.03 cm**-1
  68:      1190.90 cm**-1
  69:      1198.42 cm**-1
  70:      1209.65 cm**-1
  71:      1249.24 cm**-1
  72:      1272.33 cm**-1
  73:      1274.00 cm**-1
  74:      1291.51 cm**-1
  75:      1293.78 cm**-1
  76:      1322.20 cm**-1
  77:      1377.01 cm**-1
  78:      1391.97 cm**-1
  79:      1403.87 cm**-1
  80:      1409.59 cm**-1
  81:      1417.99 cm**-1
  82:      1438.73 cm**-1
  83:      1443.83 cm**-1
  84:      1456.80 cm**-1
  85:      1475.04 cm**-1
  86:      1487.71 cm**-1
  87:      1488.53 cm**-1
  88:      1492.22 cm**-1
  89:      1500.41 cm**-1
  90:      1501.31 cm**-1
  91:      1504.94 cm**-1
  92:      1508.92 cm**-1
  93:      1509.90 cm**-1
  94:      1515.46 cm**-1
  95:      1529.17 cm**-1
  96:      1556.43 cm**-1
  97:      1568.54 cm**-1
  98:      1631.73 cm**-1
  99:      1652.83 cm**-1
 100:      1679.65 cm**-1
 101:      1712.72 cm**-1
 102:      1721.43 cm**-1
 103:      3045.14 cm**-1
 104:      3056.89 cm**-1
 105:      3063.05 cm**-1
 106:      3071.83 cm**-1
 107:      3106.58 cm**-1
 108:      3106.99 cm**-1
 109:      3110.86 cm**-1
 110:      3125.21 cm**-1
 111:      3155.64 cm**-1
 112:      3162.04 cm**-1
 113:      3170.79 cm**-1
 114:      3182.29 cm**-1
 115:      3184.72 cm**-1
 116:      3193.46 cm**-1
 117:      3200.86 cm**-1
 118:      3201.12 cm**-1
 119:      3206.58 cm**-1
 120:      3208.25 cm**-1
 121:      3217.62 cm**-1
 122:      3243.61 cm**-1

IR SPECTRUM
-----------

 Mode   freq       eps      Int      T**2         TX        TY        TZ
       cm**-1   L/(mol*cm) km/mol    a.u.
----------------------------------------------------------------------------
  6:     27.05   0.000253    1.28  0.002920  (-0.049076  0.020745  0.009032)
  7:     43.06   0.000785    3.97  0.005689  (-0.011647 -0.007561  0.074139)
  8:     52.80   0.000447    2.26  0.002640  ( 0.036504 -0.006391 -0.035590)
  9:     72.87   0.000497    2.51  0.002126  (-0.006814  0.036120 -0.027841)
 10:     78.08   0.000256    1.29  0.001023  (-0.024128  0.010484 -0.018184)
 11:    100.56   0.001204    6.09  0.003738  ( 0.002888 -0.044573  0.041745)
 12:    111.73   0.000468    2.37  0.001308  (-0.009561  0.021096 -0.027773)
 13:    120.18   0.001816    9.18  0.004715  ( 0.046150 -0.040556 -0.030668)
 14:    133.64   0.000127    0.64  0.000297  (-0.008853  0.014154 -0.004280)
 15:    156.65   0.000163    0.82  0.000324  (-0.009857 -0.009086  0.012021)
 16:    165.32   0.000298    1.51  0.000563  ( 0.022100 -0.008161  0.002778)
 17:    187.15   0.000162    0.82  0.000269  ( 0.007395  0.007974 -0.012289)
 18:    195.56   0.000502    2.54  0.000802  (-0.023998  0.003408 -0.014630)
 19:    204.97   0.000353    1.79  0.000538  ( 0.019625 -0.010264 -0.006876)
 20:    252.11   0.000148    0.75  0.000184  (-0.002083 -0.013181  0.002383)
 21:    259.09   0.003687   18.63  0.004441  (-0.044238  0.038577 -0.031560)
 22:    279.21   0.001712    8.65  0.001914  (-0.007925 -0.037344  0.021365)
 23:    311.85   0.000230    1.16  0.000231  ( 0.002732  0.002426  0.014741)
 24:    345.43   0.005374   27.16  0.004855  ( 0.056808 -0.008024 -0.039537)
 25:    386.96   0.001701    8.60  0.001372  ( 0.019840  0.010930  0.029301)
 26:    411.56   0.000371    1.87  0.000281  ( 0.003577 -0.006743 -0.014925)
 27:    420.47   0.001206    6.10  0.000895  ( 0.029106 -0.003361  0.006066)
 28:    433.77   0.002120   10.72  0.001525  (-0.025891 -0.025696  0.013956)
 29:    457.15   0.000664    3.35  0.000453  (-0.020029 -0.002724  0.006672)
 30:    479.61   0.000261    1.32  0.000170  ( 0.001014 -0.009703  0.008647)
 31:    495.01   0.004413   22.30  0.002782  ( 0.048043 -0.020561  0.007134)
 32:    504.31   0.002652   13.40  0.001641  ( 0.010571 -0.030232  0.024802)
 33:    517.97   0.000614    3.10  0.000370  (-0.013045  0.011827 -0.007738)
 34:    556.62   0.000881    4.45  0.000494  ( 0.016658  0.000059 -0.014719)
 35:    567.66   0.004354   22.00  0.002394  ( 0.027443  0.037270  0.015857)
 36:    593.38   0.001130    5.71  0.000594  (-0.012137 -0.004831  0.020586)
 37:    619.63   0.000454    2.29  0.000229  (-0.013960  0.004243  0.003952)
 38:    623.67   0.004167   21.06  0.002085  (-0.034671  0.003317  0.029527)
 39:    663.04   0.001636    8.27  0.000770  (-0.014468 -0.008826  0.021968)
 40:    699.52   0.003352   16.94  0.001495  ( 0.028938 -0.001694  0.025593)
 41:    735.00   0.001229    6.21  0.000522  ( 0.010167 -0.020318  0.002349)
 42:    747.57   0.001327    6.71  0.000554  (-0.001007  0.010744 -0.020917)
 43:    757.47   0.002609   13.19  0.001075  (-0.011593 -0.005490  0.030172)
 44:    795.39   0.005540   28.00  0.002174  (-0.003860  0.034042 -0.031623)
 45:    802.58   0.000313    1.58  0.000122  ( 0.001806 -0.006591  0.008656)
 46:    814.55   0.019093   96.49  0.007315  ( 0.017802 -0.044403  0.070895)
 47:    831.79   0.002875   14.53  0.001078  (-0.009374  0.005752  0.030944)
 48:    874.18   0.000218    1.10  0.000078  ( 0.002582  0.007135 -0.004499)
 49:    876.16   0.001281    6.47  0.000456  (-0.014418  0.015730  0.000885)
 50:    926.47   0.001870    9.45  0.000630  (-0.020263 -0.011388 -0.009472)
 51:    947.89   0.000668    3.37  0.000220  ( 0.008529  0.011718 -0.003114)
 52:    955.53   0.000611    3.09  0.000200  ( 0.004670  0.005002  0.012363)
 53:    973.58   0.001668    8.43  0.000535  ( 0.019931 -0.010718  0.004755)
 54:    987.71   0.000103    0.52  0.000033  (-0.002460  0.001561 -0.004910)
 55:    993.51   0.004701   23.75  0.001476  (-0.031516 -0.021155 -0.005971)
 56:    995.25   0.000316    1.60  0.000099  (-0.003834  0.007113 -0.005815)
 57:   1008.88   0.010984   55.51  0.003398  ( 0.042573 -0.000471 -0.039810)
 58:   1042.89   0.006211   31.39  0.001859  ( 0.021290  0.036740  0.007455)
 59:   1060.62   0.000411    2.07  0.000121  (-0.007493  0.000369 -0.008033)
 60:   1062.03   0.001899    9.60  0.000558  (-0.011224  0.007207  0.019495)
 61:   1088.50   0.001508    7.62  0.000432  (-0.017912 -0.010327 -0.002190)
 62:   1104.74   0.002301   11.63  0.000650  ( 0.002086  0.020572  0.014915)
 63:   1114.71   0.000419    2.12  0.000117  ( 0.002188  0.003760 -0.009912)
 64:   1136.46   0.000266    1.35  0.000073  ( 0.001342 -0.006366 -0.005546)
 65:   1173.82   0.000287    1.45  0.000076  ( 0.005150  0.000109 -0.007048)
 66:   1180.93   0.000422    2.13  0.000112  (-0.003672 -0.004535 -0.008805)
 67:   1189.03   0.010887   55.02  0.002857  (-0.002543 -0.015184 -0.051189)
 68:   1190.90   0.000163    0.82  0.000043  (-0.004935 -0.003560 -0.002393)
 69:   1198.42   0.000422    2.13  0.000110  (-0.005303  0.007265  0.005394)
 70:   1209.65   0.009214   46.56  0.002377  (-0.024830  0.037061  0.019670)
 71:   1249.24   0.000794    4.01  0.000198  (-0.007386 -0.008994 -0.007933)
 72:   1272.33   0.019425   98.16  0.004764  ( 0.068136  0.011034  0.000002)
 73:   1274.00   0.020285  102.51  0.004969  ( 0.048850  0.050475  0.005884)
 74:   1291.51   0.015898   80.34  0.003841  ( 0.055014  0.014663 -0.024493)
 75:   1293.78   0.003472   17.55  0.000837  ( 0.026881 -0.009946 -0.003998)
 76:   1322.20   0.014230   71.91  0.003359  ( 0.056056 -0.000926  0.014678)
 77:   1377.01   0.005915   29.89  0.001341  (-0.030035  0.015321  0.014272)
 78:   1391.97   0.001695    8.57  0.000380  ( 0.003671  0.007216  0.017734)
 79:   1403.87   0.006513   32.92  0.001448  (-0.027415 -0.026149  0.003532)
 80:   1409.59   0.004432   22.40  0.000981  (-0.019281 -0.021539  0.012065)
 81:   1417.99   0.009067   45.82  0.001995  (-0.043462 -0.005025 -0.009013)
 82:   1438.73   0.000826    4.18  0.000179  (-0.012281  0.004885  0.002123)
 83:   1443.83   0.018363   92.80  0.003969  (-0.036171  0.009047  0.050782)
 84:   1456.80   0.021190  107.08  0.004539  ( 0.064656  0.006060 -0.017941)
 85:   1475.04   0.032499  164.24  0.006876  ( 0.068405  0.039646  0.024992)
 86:   1487.71   0.001692    8.55  0.000355  ( 0.009180 -0.016419  0.001088)
 87:   1488.53   0.001883    9.52  0.000395  ( 0.015116  0.004650 -0.012027)
 88:   1492.22   0.002104   10.63  0.000440  (-0.000776  0.020618 -0.003770)
 89:   1500.41   0.005115   25.85  0.001064  ( 0.027271 -0.001952  0.017783)
 90:   1501.31   0.002844   14.37  0.000591  ( 0.016966  0.001090  0.017380)
 91:   1504.94   0.003653   18.46  0.000758  (-0.002269 -0.004493 -0.027060)
 92:   1508.92   0.004930   24.91  0.001020  (-0.020833  0.019244 -0.014671)
 93:   1509.90   0.000881    4.45  0.000182  (-0.010895 -0.006720  0.004265)
 94:   1515.46   0.003822   19.31  0.000787  (-0.002736  0.022592 -0.016405)
 95:   1529.17   0.000885    4.47  0.000181  (-0.011714  0.000500 -0.006564)
 96:   1556.43   0.014759   74.59  0.002959  ( 0.027631 -0.005942 -0.046480)
 97:   1568.54   0.002217   11.21  0.000441  ( 0.008450  0.015400  0.011516)
 98:   1631.73   0.000450    2.27  0.000086  (-0.006735  0.006214  0.001435)
 99:   1652.83   0.002798   14.14  0.000528  (-0.009374  0.018949  0.009019)
100:   1679.65   0.000128    0.65  0.000024  ( 0.000084  0.002615 -0.004124)
101:   1712.72   0.103499  523.04  0.018858  (-0.050740 -0.126555  0.016340)
102:   1721.43   0.095971  485.00  0.017398  ( 0.029643  0.072160  0.106358)
103:   3045.14   0.009650   48.77  0.000989  ( 0.019899  0.013222 -0.020448)
104:   3056.89   0.014157   71.54  0.001445  (-0.003014 -0.011385 -0.036146)
105:   3063.05   0.000828    4.18  0.000084  (-0.003428  0.005048 -0.006862)
106:   3071.83   0.007260   36.69  0.000738  ( 0.006708 -0.023893 -0.011030)
107:   3106.58   0.005761   29.11  0.000579  (-0.008472  0.002240 -0.022403)
108:   3106.99   0.009935   50.21  0.000998  (-0.008893  0.029358 -0.007542)
109:   3110.86   0.000756    3.82  0.000076  ( 0.003666  0.002151 -0.007598)
110:   3125.21   0.002186   11.05  0.000218  (-0.006965  0.003117  0.012652)
111:   3155.64   0.001665    8.42  0.000165  (-0.001825  0.011153  0.006079)
112:   3162.04   0.001673    8.45  0.000165  ( 0.005136  0.000489  0.011768)
113:   3170.79   0.003021   15.27  0.000297  (-0.012223 -0.011887  0.002575)
114:   3182.29   0.000272    1.37  0.000027  (-0.000683  0.004027  0.003157)
115:   3184.72   0.001307    6.60  0.000128  ( 0.010866 -0.000317 -0.003139)
116:   3193.46   0.004361   22.04  0.000426  ( 0.010004 -0.011761 -0.013702)
117:   3200.86   0.000282    1.42  0.000027  (-0.004935 -0.000877 -0.001539)
118:   3201.12   0.007743   39.13  0.000755  (-0.002989  0.020732  0.017779)
119:   3206.58   0.004408   22.28  0.000429  (-0.020687  0.000557  0.000860)
120:   3208.25   0.008724   44.09  0.000849  ( 0.027547  0.009116  0.002583)
121:   3217.62   0.001781    9.00  0.000173  ( 0.000818  0.011361  0.006553)
122:   3243.61   0.003559   17.99  0.000342  ( 0.007151 -0.011078 -0.012982)

--------------------------
THERMOCHEMISTRY AT 298.15K
--------------------------

Temperature         ... 298.15 K
Pressure            ... 1.00 atm
Total Mass          ... 284.36 AMU

Throughout the following assumptions are being made:
  (1) The electronic state is orbitally nondegenerate
  (2) There are no thermally accessible electronically excited states
  (3) Hindered rotations indicated by low frequency modes are not
      treated as such but are treated as vibrations and this may
      cause some error
  (4) All equations used are the standard statistical mechanics
      equations for an ideal gas
  (5) All vibrations are strictly harmonic

freq.      27.05  E(vib)   ...       0.55
freq.      43.06  E(vib)   ...       0.53
freq.      52.80  E(vib)   ...       0.52
freq.      72.87  E(vib)   ...       0.49
freq.      78.08  E(vib)   ...       0.49
freq.     100.56  E(vib)   ...       0.46
freq.     111.73  E(vib)   ...       0.45
freq.     120.18  E(vib)   ...       0.44
freq.     133.64  E(vib)   ...       0.42
freq.     156.65  E(vib)   ...       0.40
freq.     165.32  E(vib)   ...       0.39
freq.     187.15  E(vib)   ...       0.36
freq.     195.56  E(vib)   ...       0.36
freq.     204.97  E(vib)   ...       0.35
freq.     252.11  E(vib)   ...       0.30
freq.     259.09  E(vib)   ...       0.30
freq.     279.21  E(vib)   ...       0.28
freq.     311.85  E(vib)   ...       0.25
freq.     345.43  E(vib)   ...       0.23
freq.     386.96  E(vib)   ...       0.20
freq.     411.56  E(vib)   ...       0.19
freq.     420.47  E(vib)   ...       0.18
freq.     433.77  E(vib)   ...       0.17
freq.     457.15  E(vib)   ...       0.16
freq.     479.61  E(vib)   ...       0.15
freq.     495.01  E(vib)   ...       0.14
freq.     504.31  E(vib)   ...       0.14
freq.     517.97  E(vib)   ...       0.13
freq.     556.62  E(vib)   ...       0.12
freq.     567.66  E(vib)   ...       0.11
freq.     593.38  E(vib)   ...       0.10
freq.     619.63  E(vib)   ...       0.09
freq.     623.67  E(vib)   ...       0.09
freq.     663.04  E(vib)   ...       0.08
freq.     699.52  E(vib)   ...       0.07
freq.     735.00  E(vib)   ...       0.06
freq.     747.57  E(vib)   ...       0.06
freq.     757.47  E(vib)   ...       0.06
freq.     795.39  E(vib)   ...       0.05
freq.     802.58  E(vib)   ...       0.05
freq.     814.55  E(vib)   ...       0.05
freq.     831.79  E(vib)   ...       0.04
freq.     874.18  E(vib)   ...       0.04
freq.     876.16  E(vib)   ...       0.04
freq.     926.47  E(vib)   ...       0.03
freq.     947.89  E(vib)   ...       0.03
freq.     955.53  E(vib)   ...       0.03
freq.     973.58  E(vib)   ...       0.03
freq.     987.71  E(vib)   ...       0.02
freq.     993.51  E(vib)   ...       0.02
freq.     995.25  E(vib)   ...       0.02
freq.    1008.88  E(vib)   ...       0.02
freq.    1042.89  E(vib)   ...       0.02
freq.    1060.62  E(vib)   ...       0.02
freq.    1062.03  E(vib)   ...       0.02
freq.    1088.50  E(vib)   ...       0.02
freq.    1104.74  E(vib)   ...       0.02
freq.    1114.71  E(vib)   ...       0.01
freq.    1136.46  E(vib)   ...       0.01
freq.    1173.82  E(vib)   ...       0.01
freq.    1180.93  E(vib)   ...       0.01
freq.    1189.03  E(vib)   ...       0.01
freq.    1190.90  E(vib)   ...       0.01
freq.    1198.42  E(vib)   ...       0.01
freq.    1209.65  E(vib)   ...       0.01
freq.    1249.24  E(vib)   ...       0.01
freq.    1272.33  E(vib)   ...       0.01
freq.    1274.00  E(vib)   ...       0.01
freq.    1291.51  E(vib)   ...       0.01
freq.    1293.78  E(vib)   ...       0.01
freq.    1322.20  E(vib)   ...       0.01
freq.    1377.01  E(vib)   ...       0.01
freq.    1391.97  E(vib)   ...       0.00
freq.    1403.87  E(vib)   ...       0.00
freq.    1409.59  E(vib)   ...       0.00
freq.    1417.99  E(vib)   ...       0.00
freq.    1438.73  E(vib)   ...       0.00
freq.    1443.83  E(vib)   ...       0.00
freq.    1456.80  E(vib)   ...       0.00
freq.    1475.04  E(vib)   ...       0.00
freq.    1487.71  E(vib)   ...       0.00
freq.    1488.53  E(vib)   ...       0.00
freq.    1492.22  E(vib)   ...       0.00
freq.    1500.41  E(vib)   ...       0.00
freq.    1501.31  E(vib)   ...       0.00
freq.    1504.94  E(vib)   ...       0.00
freq.    1508.92  E(vib)   ...       0.00
freq.    1509.90  E(vib)   ...       0.00
freq.    1515.46  E(vib)   ...       0.00
freq.    1529.17  E(vib)   ...       0.00
freq.    1556.43  E(vib)   ...       0.00
freq.    1568.54  E(vib)   ...       0.00
freq.    1631.73  E(vib)   ...       0.00
freq.    1652.83  E(vib)   ...       0.00
freq.    1679.65  E(vib)   ...       0.00
freq.    1712.72  E(vib)   ...       0.00
freq.    1721.43  E(vib)   ...       0.00
freq.    3045.14  E(vib)   ...       0.00
freq.    3056.89  E(vib)   ...       0.00
freq.    3063.05  E(vib)   ...       0.00
freq.    3071.83  E(vib)   ...       0.00
freq.    3106.58  E(vib)   ...       0.00
freq.    3106.99  E(vib)   ...       0.00
freq.    3110.86  E(vib)   ...       0.00
freq.    3125.21  E(vib)   ...       0.00
freq.    3155.64  E(vib)   ...       0.00
freq.    3162.04  E(vib)   ...       0.00
freq.    3170.79  E(vib)   ...       0.00
freq.    3182.29  E(vib)   ...       0.00
freq.    3184.72  E(vib)   ...       0.00
freq.    3193.46  E(vib)   ...       0.00
freq.    3200.86  E(vib)   ...       0.00
freq.    3201.12  E(vib)   ...       0.00
freq.    3206.58  E(vib)   ...       0.00
freq.    3208.25  E(vib)   ...       0.00
freq.    3217.62  E(vib)   ...       0.00
freq.    3243.61  E(vib)   ...       0.00

------------
INNER ENERGY
------------

The inner energy is: U= E(el) + E(ZPE) + E(vib) + E(rot) + E(trans)
    E(el)   - is the total energy from the electronic structure calculation
              = E(kin-el) + E(nuc-el) + E(el-el) + E(nuc-nuc)
    E(ZPE)  - the the zero temperature vibrational energy from the frequency calculation
    E(vib)  - the the finite temperature correction to E(ZPE) due to population
              of excited vibrational states
    E(rot)  - is the rotational thermal energy
    E(trans)- is the translational thermal energy

Summary of contributions to the inner energy U:
Electronic energy                ...   -919.36136426 Eh
Zero point energy                ...      0.34490804 Eh     216.43 kcal/mol
Thermal vibrational correction   ...      0.01700613 Eh      10.67 kcal/mol
Thermal rotational correction    ...      0.00141627 Eh       0.89 kcal/mol
Thermal translational correction ...      0.00141627 Eh       0.89 kcal/mol
-----------------------------------------------------------------------
Total thermal energy                   -918.99661754 Eh

Summary of corrections to the electronic energy:
(perhaps to be used in another calculation)
Total thermal correction                  0.01983867 Eh      12.45 kcal/mol

Rotational constants in cm-1:     0.017059     0.008858     0.007649

                             ****ORCA TERMINATED NORMALLY****
TOTAL RUN TIME: 0 days 1 hours 38 minutes 11 seconds 243 msec
