                         Program Version 5.0.4 -  RELEASE  -
|  1> ! OPT FREQ B3LYP 6-31+G(d) D4 AUTOAUX
|  2> ! CPCM
|  3>
|  4> %cpcm
|  5> epsilon 9.8629
|  6> refrac  1.4295
|  7> end
|  8>
|  9> %PAL NPROCS 4 END
| 10>
| 11> %maxcore 3375
| 12>
| 13> *xyzfile 1 1 /users/fjb15167/WWenergy/structures/Nk.xyz
| 14>
| 15>                          ****END OF INPUT****
 Total Charge           Charge          ....    1
 Multiplicity           Mult            ....    1
 Number of Electrons    NEL             ....  118
Dispersion correction           -0.060484452
FINAL SINGLE POINT ENERGY      -708.544369396841
Dispersion correction            ... Starting D4
Dispersion correction           -0.058425995
FINAL SINGLE POINT ENERGY      -708.544333929555
Dispersion correction            ... Starting D4
Dispersion correction           -0.059032349
FINAL SINGLE POINT ENERGY      -708.547644736951
Dispersion correction            ... Starting D4
FINAL SINGLE POINT ENERGY      -708.547939344865
FINAL SINGLE POINT ENERGY      -708.548190662828
FINAL SINGLE POINT ENERGY      -708.548051026150
FINAL SINGLE POINT ENERGY      -708.548323629553
FINAL SINGLE POINT ENERGY      -708.548326922073
FINAL SINGLE POINT ENERGY      -708.548341064582
FINAL SINGLE POINT ENERGY      -708.548344500597
Dispersion correction           -0.059431157
FINAL SINGLE POINT ENERGY      -708.548346108797
Dispersion correction            ... Starting D4
Dispersion correction           -0.059426696
FINAL SINGLE POINT ENERGY      -708.548346864069
Dispersion correction            ... Starting D4
                    ***********************HURRAY********************

CARTESIAN COORDINATES (ANGSTROEM)
---------------------------------
  C      0.585735   -2.318820    2.213946
  H      1.634689   -2.170629    1.943843
  H      0.368735   -3.391918    2.136094
  H      0.431756   -2.007764    3.248971
  C     -0.360679   -1.530611    1.333217
  O     -1.293181   -0.870114    1.821920
  N     -0.175838   -1.567015   -0.018116
  C     -1.229136   -0.945522   -0.828429
  H     -0.917393   -0.986392   -1.875682
  H     -2.150045   -1.524878   -0.735014
  C      0.729916   -2.530812   -0.678582
  H      0.702894   -3.481104   -0.136345
  H      0.300415   -2.725416   -1.665125
  C      2.190740   -2.082078   -0.857818
  H      2.739411   -2.165529    0.088329
  H      2.653444   -2.807263   -1.537950
  C     -1.451500    0.534903   -0.511606
  N     -2.716533    0.977411   -0.383472
  O     -0.475682    1.316583   -0.475223
  C     -3.877693    0.088816   -0.235283
  H     -4.742635    0.705081    0.015692
  H     -4.097560   -0.445201   -1.165625
  H     -3.717439   -0.628638    0.574437
  C     -2.958337    2.407606   -0.181326
  H     -3.110517    2.625592    0.884065
  H     -2.103714    2.977696   -0.543332
  H     -3.855316    2.699331   -0.734948
  C      2.347628   -0.657878   -1.422281
  H      3.201830   -0.610670   -2.108254
  H      1.460102   -0.387789   -2.008121
  C      2.555078    0.364307   -0.303725
  H      1.899835    0.176841    0.547431
  H      3.591832    0.381394    0.040882
  N      2.201655    1.742570   -0.783552
  H      2.466744    2.464109   -0.105809
  H      2.655237    1.974877   -1.673173
  H      1.167519    1.767924   -0.897036

 Multiplicity           Mult            ....    1
 Number of Electrons    NEL             ....  118
 Basis Dimension        Dim             ....  314

ORBITAL ENERGIES
----------------

  NO   OCC          E(Eh)            E(eV)
   0   2.0000     -19.140410      -520.8370
   1   2.0000     -19.136352      -520.7266
   2   2.0000     -14.440898      -392.9568
   3   2.0000     -14.385143      -391.4396
   4   2.0000     -14.382214      -391.3599
   5   2.0000     -10.309978      -280.5488
   6   2.0000     -10.303559      -280.3741
   7   2.0000     -10.248093      -278.8648
   8   2.0000     -10.237821      -278.5853
   9   2.0000     -10.231438      -278.4116
  10   2.0000     -10.218429      -278.0576
  11   2.0000     -10.214241      -277.9436
  12   2.0000     -10.202657      -277.6284
  13   2.0000     -10.196972      -277.4737
  14   2.0000     -10.189847      -277.2798
  15   2.0000      -1.061591       -28.8873
  16   2.0000      -1.049434       -28.5565
  17   2.0000      -1.000387       -27.2219
  18   2.0000      -0.951273       -25.8855
  19   2.0000      -0.951056       -25.8795
  20   2.0000      -0.817369       -22.2417
  21   2.0000      -0.780415       -21.2362
  22   2.0000      -0.752698       -20.4820
  23   2.0000      -0.736873       -20.0513
  24   2.0000      -0.725607       -19.7448
  25   2.0000      -0.693459       -18.8700
  26   2.0000      -0.674697       -18.3594
  27   2.0000      -0.626047       -17.0356
  28   2.0000      -0.594935       -16.1890
  29   2.0000      -0.577433       -15.7127
  30   2.0000      -0.563453       -15.3323
  31   2.0000      -0.539562       -14.6822
  32   2.0000      -0.528441       -14.3796
  33   2.0000      -0.519675       -14.1411
  34   2.0000      -0.511472       -13.9179
  35   2.0000      -0.490241       -13.3401
  36   2.0000      -0.484709       -13.1896
  37   2.0000      -0.479707       -13.0535
  38   2.0000      -0.474923       -12.9233
  39   2.0000      -0.458840       -12.4857
  40   2.0000      -0.446982       -12.1630
  41   2.0000      -0.435865       -11.8605
  42   2.0000      -0.426008       -11.5923
  43   2.0000      -0.420892       -11.4531
  44   2.0000      -0.416940       -11.3455
  45   2.0000      -0.415203       -11.2982
  46   2.0000      -0.408131       -11.1058
  47   2.0000      -0.404383       -11.0038
  48   2.0000      -0.400833       -10.9072
  49   2.0000      -0.389983       -10.6120
  50   2.0000      -0.388078       -10.5601
  51   2.0000      -0.368564       -10.0291
  52   2.0000      -0.366784        -9.9807
  53   2.0000      -0.356740        -9.7074
  54   2.0000      -0.353056        -9.6071
  55   2.0000      -0.288481        -7.8500
  56   2.0000      -0.279022        -7.5926
  57   2.0000      -0.263012        -7.1569
  58   2.0000      -0.262328        -7.1383
  59   0.0000      -0.014844        -0.4039
  60   0.0000      -0.009631        -0.2621
  61   0.0000      -0.006348        -0.1727
  62   0.0000       0.003333         0.0907
  63   0.0000       0.005770         0.1570

MULLIKEN ATOMIC CHARGES
-----------------------
   0 C :   -1.016153
   1 H :    0.244702
   2 H :    0.259849
   3 H :    0.246744
   4 C :    0.856321
   5 O :   -0.582889
   6 N :   -0.115096
   7 C :   -0.789602
   8 H :    0.258071
   9 H :    0.248563
  10 C :   -0.368092
  11 H :    0.232177
  12 H :    0.232544
  13 C :   -0.430360
  14 H :    0.221544
  15 H :    0.226960
  16 C :    0.511876
  17 N :    0.023499
  18 O :   -0.698676
  19 C :   -0.533321
  20 H :    0.230438
  21 H :    0.238110
  22 H :    0.251514
  23 C :   -0.519170
  24 H :    0.235706
  25 H :    0.240369
  26 H :    0.230900
  27 C :   -0.357346
  28 H :    0.230606
  29 H :    0.231789
  30 C :   -0.135732
  31 H :    0.272935
  32 H :    0.255408
  33 N :   -1.050610
  34 H :    0.516146
  35 H :    0.511612
  36 H :    0.588663
Sum of atomic charges:    1.0000000

LOEWDIN ATOMIC CHARGES
----------------------
   0 C :   -0.465431
   1 H :    0.223167
   2 H :    0.227876
   3 H :    0.220275
   4 C :    0.108970
   5 O :   -0.432120
   6 N :   -0.315064
   7 C :   -0.209480
   8 H :    0.248604
   9 H :    0.241239
  10 C :   -0.252423
  11 H :    0.225901
  12 H :    0.228871
  13 C :   -0.368401
  14 H :    0.214273
  15 H :    0.209966
  16 C :    0.125613
  17 N :   -0.309832
  18 O :   -0.495813
  19 C :   -0.361906
  20 H :    0.218877
  21 H :    0.213895
  22 H :    0.225051
  23 C :   -0.346410
  24 H :    0.213217
  25 H :    0.228672
  26 H :    0.210174
  27 C :   -0.366812
  28 H :    0.210804
  29 H :    0.226334
  30 C :   -0.254118
  31 H :    0.240460
  32 H :    0.223134
  33 N :   -0.410589
  34 H :    0.359677
  35 H :    0.360351
  36 H :    0.382996

  Mayer bond orders larger than 0.100000
B(  0-C ,  1-H ) :   0.9782 B(  0-C ,  2-H ) :   0.9314 B(  0-C ,  3-H ) :   1.0066
B(  0-C ,  4-C ) :   0.3711 B(  1-H ,  4-C ) :  -0.1030 B(  4-C ,  5-O ) :   1.6765
B(  4-C ,  6-N ) :   1.2344 B(  4-C , 16-C ) :  -0.1132 B(  5-O ,  7-C ) :  -0.1556
B(  5-O , 16-C ) :   0.1367 B(  6-N ,  7-C ) :   0.8437 B(  6-N , 10-C ) :   0.7174
B(  7-C ,  8-H ) :   0.9808 B(  7-C ,  9-H ) :   1.0737 B(  7-C , 16-C ) :   0.7326
B(  7-C , 17-N ) :  -0.2601 B(  7-C , 18-O ) :  -0.1596 B(  9-H , 16-C ) :  -0.1127
B( 10-C , 11-H ) :   0.9843 B( 10-C , 12-H ) :   0.9938 B( 10-C , 13-C ) :   0.7083
B( 13-C , 14-H ) :   1.0060 B( 13-C , 15-H ) :   0.9889 B( 13-C , 27-C ) :   0.6202
B( 16-C , 17-N ) :   1.3633 B( 16-C , 18-O ) :   1.7947 B( 17-N , 19-C ) :   0.7528
B( 17-N , 23-C ) :   0.8297 B( 18-O , 36-H ) :   0.1372 B( 19-C , 20-H ) :   0.9421
B( 19-C , 21-H ) :   0.9324 B( 19-C , 22-H ) :   0.9261 B( 23-C , 24-H ) :   0.9390
B( 23-C , 25-H ) :   0.9453 B( 23-C , 26-H ) :   0.9308 B( 27-C , 28-H ) :   0.9660
B( 27-C , 29-H ) :   0.9897 B( 27-C , 30-C ) :   0.7730 B( 30-C , 31-H ) :   0.9585
B( 30-C , 32-H ) :   0.9375 B( 30-C , 33-N ) :   0.4929 B( 33-N , 34-H ) :   0.6908
B( 33-N , 35-H ) :   0.6832 B( 33-N , 36-H ) :   0.5047

Dispersion correction           -0.059428166
FINAL SINGLE POINT ENERGY      -708.548347315779

DIPOLE MOMENT
-------------
                                X             Y             Z
Electronic contribution:     -2.44820       2.15429       1.19718
Nuclear contribution   :      5.77629      -0.91712      -3.57263
                        -----------------------------------------
Total Dipole Moment    :      3.32809       1.23717      -2.37545
                        -----------------------------------------
Magnitude (a.u.)       :      4.27195
Magnitude (Debye)      :     10.85843

Dispersion correction in the Hessian             ... Starting D4

VIBRATIONAL FREQUENCIES
-----------------------

Scaling factor for frequencies =  1.000000000  (already applied!)

   0:         0.00 cm**-1
   1:         0.00 cm**-1
   2:         0.00 cm**-1
   3:         0.00 cm**-1
   4:         0.00 cm**-1
   5:         0.00 cm**-1
   6:        35.87 cm**-1
   7:        38.73 cm**-1
   8:        49.81 cm**-1
   9:        70.47 cm**-1
  10:        79.88 cm**-1
  11:        92.07 cm**-1
  12:       105.18 cm**-1
  13:       121.69 cm**-1
  14:       132.33 cm**-1
  15:       152.82 cm**-1
  16:       158.11 cm**-1
  17:       188.66 cm**-1
  18:       208.70 cm**-1
  19:       259.63 cm**-1
  20:       268.41 cm**-1
  21:       282.28 cm**-1
  22:       305.17 cm**-1
  23:       322.23 cm**-1
  24:       342.49 cm**-1
  25:       367.47 cm**-1
  26:       404.16 cm**-1
  27:       413.38 cm**-1
  28:       459.40 cm**-1
  29:       482.97 cm**-1
  30:       505.33 cm**-1
  31:       594.73 cm**-1
  32:       603.71 cm**-1
  33:       622.48 cm**-1
  34:       661.96 cm**-1
  35:       733.03 cm**-1
  36:       772.91 cm**-1
  37:       829.95 cm**-1
  38:       862.65 cm**-1
  39:       880.60 cm**-1
  40:       922.79 cm**-1
  41:       956.48 cm**-1
  42:       972.55 cm**-1
  43:      1002.76 cm**-1
  44:      1010.91 cm**-1
  45:      1022.31 cm**-1
  46:      1037.27 cm**-1
  47:      1062.82 cm**-1
  48:      1083.92 cm**-1
  49:      1084.94 cm**-1
  50:      1103.87 cm**-1
  51:      1124.57 cm**-1
  52:      1143.26 cm**-1
  53:      1164.94 cm**-1
  54:      1173.43 cm**-1
  55:      1188.84 cm**-1
  56:      1220.97 cm**-1
  57:      1265.25 cm**-1
  58:      1284.15 cm**-1
  59:      1296.50 cm**-1
  60:      1322.12 cm**-1
  61:      1332.33 cm**-1
  62:      1362.93 cm**-1
  63:      1370.48 cm**-1
  64:      1376.21 cm**-1
  65:      1400.41 cm**-1
  66:      1408.02 cm**-1
  67:      1416.70 cm**-1
  68:      1441.86 cm**-1
  69:      1446.08 cm**-1
  70:      1455.67 cm**-1
  71:      1474.52 cm**-1
  72:      1478.11 cm**-1
  73:      1486.07 cm**-1
  74:      1492.58 cm**-1
  75:      1494.24 cm**-1
  76:      1500.99 cm**-1
  77:      1503.22 cm**-1
  78:      1512.21 cm**-1
  79:      1512.80 cm**-1
  80:      1514.12 cm**-1
  81:      1517.99 cm**-1
  82:      1525.16 cm**-1
  83:      1534.79 cm**-1
  84:      1550.21 cm**-1
  85:      1648.23 cm**-1
  86:      1668.68 cm**-1
  87:      1669.44 cm**-1
  88:      1695.39 cm**-1
  89:      3045.59 cm**-1
  90:      3053.40 cm**-1
  91:      3055.83 cm**-1
  92:      3060.91 cm**-1
  93:      3062.43 cm**-1
  94:      3078.24 cm**-1
  95:      3089.60 cm**-1
  96:      3092.31 cm**-1
  97:      3098.82 cm**-1
  98:      3116.86 cm**-1
  99:      3118.68 cm**-1
 100:      3124.54 cm**-1
 101:      3132.58 cm**-1
 102:      3132.70 cm**-1
 103:      3144.89 cm**-1
 104:      3163.45 cm**-1
 105:      3167.82 cm**-1
 106:      3178.60 cm**-1
 107:      3185.55 cm**-1
 108:      3199.21 cm**-1
 109:      3459.29 cm**-1
 110:      3515.42 cm**-1

IR SPECTRUM
-----------

 Mode   freq       eps      Int      T**2         TX        TY        TZ
       cm**-1   L/(mol*cm) km/mol    a.u.
----------------------------------------------------------------------------
  6:     35.87   0.003890   19.66  0.033838  ( 0.008248  0.158021 -0.093807)
  7:     38.73   0.003021   15.27  0.024345  (-0.014551 -0.031686 -0.152084)
  8:     49.81   0.001421    7.18  0.008900  ( 0.050532  0.072077 -0.033932)
  9:     70.47   0.001277    6.45  0.005654  (-0.021973 -0.003392 -0.071832)
 10:     79.88   0.000037    0.19  0.000146  ( 0.009443  0.006183 -0.004355)
 11:     92.07   0.000868    4.39  0.002941  ( 0.026600 -0.006443  0.046819)
 12:    105.18   0.002710   13.69  0.008040  ( 0.063884  0.052049  0.035358)
 13:    121.69   0.000612    3.09  0.001570  ( 0.002606  0.001992  0.039486)
 14:    132.33   0.000042    0.21  0.000100  (-0.008173  0.005742  0.000652)
 15:    152.82   0.001363    6.89  0.002784  ( 0.052688 -0.002275 -0.001731)
 16:    158.11   0.000019    0.10  0.000037  (-0.001611  0.005148 -0.002875)
 17:    188.66   0.011808   59.67  0.019531  ( 0.123497  0.035292 -0.055085)
 18:    208.70   0.003217   16.26  0.004810  (-0.067501 -0.004867 -0.015168)
 19:    259.63   0.000447    2.26  0.000537  (-0.007209 -0.016231  0.014898)
 20:    268.41   0.003388   17.12  0.003939  ( 0.047136 -0.012765  0.039422)
 21:    282.28   0.000850    4.29  0.000939  ( 0.017239  0.024743  0.005458)
 22:    305.17   0.002899   14.65  0.002965  (-0.047922 -0.007586  0.024711)
 23:    322.23   0.002176   10.99  0.002107  ( 0.000114 -0.012126  0.044271)
 24:    342.49   0.000292    1.48  0.000266  ( 0.014463  0.006795 -0.003298)
 25:    367.47   0.001138    5.75  0.000966  (-0.028613  0.007574 -0.009492)
 26:    404.16   0.001826    9.23  0.001410  (-0.009814 -0.009044 -0.035095)
 27:    413.38   0.006930   35.02  0.005231  ( 0.045341 -0.056175 -0.004464)
 28:    459.40   0.001674    8.46  0.001137  ( 0.025843  0.020978 -0.005416)
 29:    482.97   0.003209   16.22  0.002074  ( 0.041056  0.017163 -0.009668)
 30:    505.33   0.006903   34.88  0.004263  (-0.037873  0.013101 -0.051543)
 31:    594.73   0.005410   27.34  0.002839  ( 0.045686 -0.010124 -0.025472)
 32:    603.71   0.000160    0.81  0.000083  (-0.007583 -0.004885 -0.001166)
 33:    622.48   0.001704    8.61  0.000854  (-0.008470 -0.027571 -0.004739)
 34:    661.96   0.003266   16.51  0.001540  (-0.035712  0.007407 -0.014477)
 35:    733.03   0.003149   15.91  0.001341  (-0.023924 -0.012124  0.024925)
 36:    772.91   0.006374   32.21  0.002574  ( 0.049888  0.003755 -0.008415)
 37:    829.95   0.006988   35.32  0.002628  (-0.031523 -0.025049  0.031726)
 38:    862.65   0.002903   14.67  0.001050  (-0.029603 -0.003117 -0.012809)
 39:    880.60   0.001459    7.38  0.000517  (-0.015255 -0.001795 -0.016771)
 40:    922.79   0.001761    8.90  0.000595  (-0.011284 -0.014914 -0.015671)
 41:    956.48   0.010285   51.98  0.003356  ( 0.049324  0.027968 -0.011858)
 42:    972.55   0.004775   24.13  0.001532  (-0.037213 -0.000577  0.012126)
 43:   1002.76   0.002714   13.72  0.000845  ( 0.007171 -0.024687 -0.013557)
 44:   1010.91   0.006791   34.32  0.002096  (-0.017618  0.019817  0.037327)
 45:   1022.31   0.002873   14.52  0.000877  (-0.000789  0.019115 -0.022608)
 46:   1037.27   0.002615   13.21  0.000787  ( 0.015542  0.022900 -0.004548)
 47:   1062.82   0.002076   10.49  0.000610  (-0.012183 -0.020371  0.006791)
 48:   1083.92   0.000746    3.77  0.000215  (-0.008367 -0.005324  0.010784)
 49:   1084.94   0.007709   38.96  0.002217  ( 0.035190  0.030826  0.005367)
 50:   1103.87   0.003113   15.73  0.000880  (-0.022617 -0.010513 -0.016065)
 51:   1124.57   0.003506   17.72  0.000973  ( 0.028535 -0.011876  0.004207)
 52:   1143.26   0.010664   53.89  0.002911  ( 0.050496 -0.018779 -0.002878)
 53:   1164.94   0.004878   24.65  0.001307  ( 0.031416 -0.014045  0.011068)
 54:   1173.43   0.016828   85.04  0.004475  ( 0.053590 -0.029951  0.026577)
 55:   1188.84   0.010172   51.40  0.002670  ( 0.036370 -0.035036 -0.010944)
 56:   1220.97   0.000426    2.15  0.000109  (-0.007199  0.004238  0.006251)
 57:   1265.25   0.004627   23.38  0.001141  (-0.020559 -0.011298  0.024306)
 58:   1284.15   0.007006   35.40  0.001703  (-0.027923  0.030376 -0.000333)
 59:   1296.50   0.004436   22.42  0.001068  (-0.020897  0.002601  0.024987)
 60:   1322.12   0.008040   40.63  0.001898  ( 0.004847 -0.006773  0.042759)
 61:   1332.33   0.003087   15.60  0.000723  ( 0.011511  0.011455  0.021433)
 62:   1362.93   0.003573   18.06  0.000818  ( 0.021656  0.000992  0.018658)
 63:   1370.48   0.014278   72.15  0.003251  ( 0.010177  0.002302 -0.056056)
 64:   1376.21   0.008921   45.08  0.002023  (-0.022001 -0.002816 -0.039127)
 65:   1400.41   0.013364   67.54  0.002978  ( 0.042742 -0.020825 -0.026786)
 66:   1408.02   0.003372   17.04  0.000747  ( 0.024073 -0.012833 -0.001767)
 67:   1416.70   0.007743   39.13  0.001706  ( 0.003073  0.007345 -0.040523)
 68:   1441.86   0.002894   14.63  0.000626  (-0.014928  0.018952  0.006667)
 69:   1446.08   0.020238  102.27  0.004367  (-0.056650  0.000271  0.034029)
 70:   1455.67   0.013490   68.17  0.002892  (-0.030274  0.011880  0.042828)
 71:   1474.52   0.013472   68.08  0.002851  (-0.017780  0.006443 -0.049935)
 72:   1478.11   0.006026   30.45  0.001272  (-0.031158  0.016217  0.006204)
 73:   1486.07   0.019535   98.72  0.004102  (-0.013160 -0.061135  0.013838)
 74:   1492.58   0.001254    6.34  0.000262  ( 0.003294 -0.015817 -0.001079)
 75:   1494.24   0.013365   67.54  0.002791  ( 0.001494 -0.005677 -0.052505)
 76:   1500.99   0.004464   22.56  0.000928  ( 0.007266  0.029073  0.005483)
 77:   1503.22   0.001300    6.57  0.000270  (-0.011422 -0.000602 -0.011795)
 78:   1512.21   0.002396   12.11  0.000494  ( 0.019793  0.009523  0.003463)
 79:   1512.80   0.001518    7.67  0.000313  ( 0.012530 -0.012424  0.001370)
 80:   1514.12   0.007876   39.80  0.001623  (-0.006920 -0.031764  0.023800)
 81:   1517.99   0.009175   46.37  0.001886  (-0.019804 -0.036995 -0.011199)
 82:   1525.16   0.038793  196.04  0.007937  ( 0.027628  0.074784 -0.039767)
 83:   1534.79   0.012715   64.26  0.002585  (-0.030316 -0.008621 -0.039899)
 84:   1550.21   0.015436   78.01  0.003107  (-0.046336  0.030308  0.006457)
 85:   1648.23   0.099668  503.68  0.018870  ( 0.135709  0.007934 -0.019762)
 86:   1668.68   0.074047  374.20  0.013848  ( 0.107805  0.045520  0.012394)
 87:   1669.44   0.121110  612.04  0.022639  (-0.101691  0.066361  0.088849)
 88:   1695.39   0.020219  102.18  0.003722  (-0.043533  0.006277  0.042274)
 89:   3045.59   0.011355   57.38  0.001163  ( 0.012133 -0.027175 -0.016666)
 90:   3053.40   0.006792   34.32  0.000694  (-0.013186  0.016187 -0.016070)
 91:   3055.83   0.003196   16.15  0.000326  ( 0.010033  0.003726 -0.014554)
 92:   3060.91   0.001339    6.76  0.000136  ( 0.008836 -0.006956  0.003161)
 93:   3062.43   0.008595   43.44  0.000876  ( 0.026710  0.012734  0.000519)
 94:   3078.24   0.004483   22.66  0.000454  (-0.000842 -0.020795  0.004619)
 95:   3089.60   0.004557   23.03  0.000460  ( 0.011448  0.013248  0.012399)
 96:   3092.31   0.010875   54.96  0.001097  ( 0.017993 -0.019924 -0.019410)
 97:   3098.82   0.004901   24.77  0.000494  ( 0.014018  0.011054  0.013224)
 98:   3116.86   0.011337   57.29  0.001135  (-0.030653  0.000832 -0.013958)
 99:   3118.68   0.006257   31.62  0.000626  ( 0.010981 -0.006970  0.021375)
100:   3124.54   0.008283   41.86  0.000827  (-0.013311  0.007672 -0.024316)
101:   3132.58   0.001967    9.94  0.000196  (-0.006684  0.000214  0.012299)
102:   3132.70   0.003242   16.39  0.000323  ( 0.011831  0.005395  0.012407)
103:   3144.89   0.004301   21.73  0.000427  ( 0.018096  0.009347 -0.003455)
104:   3163.45   0.002431   12.28  0.000240  ( 0.007635 -0.013465 -0.000422)
105:   3167.82   0.001960    9.91  0.000193  (-0.007682  0.002117  0.011385)
106:   3178.60   0.005861   29.62  0.000575  (-0.022850 -0.001395  0.007169)
107:   3185.55   0.002240   11.32  0.000219  ( 0.012712  0.006727 -0.003544)
108:   3199.21   0.183214  925.89  0.017871  (-0.133435 -0.007329  0.003575)
109:   3459.29   0.030704  155.16  0.002770  ( 0.041314  0.032375 -0.003843)
110:   3515.42   0.022457  113.49  0.001994  (-0.006631  0.011706  0.042574)

--------------------------
THERMOCHEMISTRY AT 298.15K
--------------------------

Temperature         ... 298.15 K
Pressure            ... 1.00 atm
Total Mass          ... 216.31 AMU

Throughout the following assumptions are being made:
  (1) The electronic state is orbitally nondegenerate
  (2) There are no thermally accessible electronically excited states
  (3) Hindered rotations indicated by low frequency modes are not
      treated as such but are treated as vibrations and this may
      cause some error
  (4) All equations used are the standard statistical mechanics
      equations for an ideal gas
  (5) All vibrations are strictly harmonic

freq.      35.87  E(vib)   ...       0.54
freq.      38.73  E(vib)   ...       0.54
freq.      49.81  E(vib)   ...       0.52
freq.      70.47  E(vib)   ...       0.50
freq.      79.88  E(vib)   ...       0.49
freq.      92.07  E(vib)   ...       0.47
freq.     105.18  E(vib)   ...       0.45
freq.     121.69  E(vib)   ...       0.44
freq.     132.33  E(vib)   ...       0.42
freq.     152.82  E(vib)   ...       0.40
freq.     158.11  E(vib)   ...       0.39
freq.     188.66  E(vib)   ...       0.36
freq.     208.70  E(vib)   ...       0.34
freq.     259.63  E(vib)   ...       0.30
freq.     268.41  E(vib)   ...       0.29
freq.     282.28  E(vib)   ...       0.28
freq.     305.17  E(vib)   ...       0.26
freq.     322.23  E(vib)   ...       0.25
freq.     342.49  E(vib)   ...       0.23
freq.     367.47  E(vib)   ...       0.21
freq.     404.16  E(vib)   ...       0.19
freq.     413.38  E(vib)   ...       0.19
freq.     459.40  E(vib)   ...       0.16
freq.     482.97  E(vib)   ...       0.15
freq.     505.33  E(vib)   ...       0.14
freq.     594.73  E(vib)   ...       0.10
freq.     603.71  E(vib)   ...       0.10
freq.     622.48  E(vib)   ...       0.09
freq.     661.96  E(vib)   ...       0.08
freq.     733.03  E(vib)   ...       0.06
freq.     772.91  E(vib)   ...       0.05
freq.     829.95  E(vib)   ...       0.04
freq.     862.65  E(vib)   ...       0.04
freq.     880.60  E(vib)   ...       0.04
freq.     922.79  E(vib)   ...       0.03
freq.     956.48  E(vib)   ...       0.03
freq.     972.55  E(vib)   ...       0.03
freq.    1002.76  E(vib)   ...       0.02
freq.    1010.91  E(vib)   ...       0.02
freq.    1022.31  E(vib)   ...       0.02
freq.    1037.27  E(vib)   ...       0.02
freq.    1062.82  E(vib)   ...       0.02
freq.    1083.92  E(vib)   ...       0.02
freq.    1084.94  E(vib)   ...       0.02
freq.    1103.87  E(vib)   ...       0.02
freq.    1124.57  E(vib)   ...       0.01
freq.    1143.26  E(vib)   ...       0.01
freq.    1164.94  E(vib)   ...       0.01
freq.    1173.43  E(vib)   ...       0.01
freq.    1188.84  E(vib)   ...       0.01
freq.    1220.97  E(vib)   ...       0.01
freq.    1265.25  E(vib)   ...       0.01
freq.    1284.15  E(vib)   ...       0.01
freq.    1296.50  E(vib)   ...       0.01
freq.    1322.12  E(vib)   ...       0.01
freq.    1332.33  E(vib)   ...       0.01
freq.    1362.93  E(vib)   ...       0.01
freq.    1370.48  E(vib)   ...       0.01
freq.    1376.21  E(vib)   ...       0.01
freq.    1400.41  E(vib)   ...       0.00
freq.    1408.02  E(vib)   ...       0.00
freq.    1416.70  E(vib)   ...       0.00
freq.    1441.86  E(vib)   ...       0.00
freq.    1446.08  E(vib)   ...       0.00
freq.    1455.67  E(vib)   ...       0.00
freq.    1474.52  E(vib)   ...       0.00
freq.    1478.11  E(vib)   ...       0.00
freq.    1486.07  E(vib)   ...       0.00
freq.    1492.58  E(vib)   ...       0.00
freq.    1494.24  E(vib)   ...       0.00
freq.    1500.99  E(vib)   ...       0.00
freq.    1503.22  E(vib)   ...       0.00
freq.    1512.21  E(vib)   ...       0.00
freq.    1512.80  E(vib)   ...       0.00
freq.    1514.12  E(vib)   ...       0.00
freq.    1517.99  E(vib)   ...       0.00
freq.    1525.16  E(vib)   ...       0.00
freq.    1534.79  E(vib)   ...       0.00
freq.    1550.21  E(vib)   ...       0.00
freq.    1648.23  E(vib)   ...       0.00
freq.    1668.68  E(vib)   ...       0.00
freq.    1669.44  E(vib)   ...       0.00
freq.    1695.39  E(vib)   ...       0.00
freq.    3045.59  E(vib)   ...       0.00
freq.    3053.40  E(vib)   ...       0.00
freq.    3055.83  E(vib)   ...       0.00
freq.    3060.91  E(vib)   ...       0.00
freq.    3062.43  E(vib)   ...       0.00
freq.    3078.24  E(vib)   ...       0.00
freq.    3089.60  E(vib)   ...       0.00
freq.    3092.31  E(vib)   ...       0.00
freq.    3098.82  E(vib)   ...       0.00
freq.    3116.86  E(vib)   ...       0.00
freq.    3118.68  E(vib)   ...       0.00
freq.    3124.54  E(vib)   ...       0.00
freq.    3132.58  E(vib)   ...       0.00
freq.    3132.70  E(vib)   ...       0.00
freq.    3144.89  E(vib)   ...       0.00
freq.    3163.45  E(vib)   ...       0.00
freq.    3167.82  E(vib)   ...       0.00
freq.    3178.60  E(vib)   ...       0.00
freq.    3185.55  E(vib)   ...       0.00
freq.    3199.21  E(vib)   ...       0.00
freq.    3459.29  E(vib)   ...       0.00
freq.    3515.42  E(vib)   ...       0.00

------------
INNER ENERGY
------------

The inner energy is: U= E(el) + E(ZPE) + E(vib) + E(rot) + E(trans)
    E(el)   - is the total energy from the electronic structure calculation
              = E(kin-el) + E(nuc-el) + E(el-el) + E(nuc-nuc)
    E(ZPE)  - the the zero temperature vibrational energy from the frequency calculation
    E(vib)  - the the finite temperature correction to E(ZPE) due to population
              of excited vibrational states
    E(rot)  - is the rotational thermal energy
    E(trans)- is the translational thermal energy

Summary of contributions to the inner energy U:
Electronic energy                ...   -708.54834732 Eh
Zero point energy                ...      0.33470848 Eh     210.03 kcal/mol
Thermal vibrational correction   ...      0.01523927 Eh       9.56 kcal/mol
Thermal rotational correction    ...      0.00141627 Eh       0.89 kcal/mol
Thermal translational correction ...      0.00141627 Eh       0.89 kcal/mol
-----------------------------------------------------------------------
Total thermal energy                   -708.19556703 Eh

Summary of corrections to the electronic energy:
(perhaps to be used in another calculation)
Total thermal correction                  0.01807181 Eh      11.34 kcal/mol
Non-thermal (ZPE) correction              0.33470848 Eh     210.03 kcal/mol
-----------------------------------------------------------------------
Total correction                          0.35278029 Eh     221.37 kcal/mol

--------
ENTHALPY
--------

The enthalpy is H = U + kB*T
                kB is Boltzmann's constant
Total free energy                 ...   -708.19556703 Eh

Rotational constants in cm-1:     0.025072     0.014759     0.011473

                             ****ORCA TERMINATED NORMALLY****
TOTAL RUN TIME: 0 days 1 hours 1 minutes 3 seconds 193 msec
