                         Program Version 5.0.4 -  RELEASE  -
|  1> ! OPT FREQ B3LYP 6-31G(d) D4 AUTOAUX CPCM(water)
|  2>
|  3> %PAL NPROCS 4 END
|  4>
|  5> %maxcore 3375
|  6>
|  7> *xyzfile 0 1 /users/fjb15167/WWenergy/structures/Nm.xyz
|  8>
|  9>                          ****END OF INPUT****
 Total Charge           Charge          ....    0
 Multiplicity           Mult            ....    1
 Number of Electrons    NEL             ....  118
Dispersion correction           -0.057381321
FINAL SINGLE POINT ENERGY     -1011.580965993752
Dispersion correction            ... Starting D4
Dispersion correction           -0.056480751
FINAL SINGLE POINT ENERGY     -1011.581793100308
Dispersion correction            ... Starting D4
Dispersion correction           -0.056921527
FINAL SINGLE POINT ENERGY     -1011.582084761018
Dispersion correction            ... Starting D4
FINAL SINGLE POINT ENERGY     -1011.582164257774
FINAL SINGLE POINT ENERGY     -1011.582231390992
FINAL SINGLE POINT ENERGY     -1011.582260187858
FINAL SINGLE POINT ENERGY     -1011.582271416891
Dispersion correction           -0.057266804
FINAL SINGLE POINT ENERGY     -1011.582277731475
Dispersion correction            ... Starting D4
Dispersion correction           -0.057306440
FINAL SINGLE POINT ENERGY     -1011.582280817431
Dispersion correction            ... Starting D4
                    ***********************HURRAY********************

CARTESIAN COORDINATES (ANGSTROEM)
---------------------------------
  C     -1.449397    3.041709   -0.558703
  H     -0.740998    2.859514   -1.372793
  H     -0.974016    3.729935    0.149697
  H     -2.344923    3.515155   -0.963958
  C     -1.873443    1.758315    0.131501
  O     -3.069350    1.456522    0.232391
  N     -0.884996    0.957805    0.637810
  C     -1.246874   -0.239078    1.396593
  H     -0.893373   -0.135776    2.427188
  H     -2.334055   -0.314053    1.403039
  C      0.546290    1.267774    0.554856
  H      0.701519    2.346776    0.616397
  H      1.015670    0.825202    1.437223
  C      1.199847    0.716943   -0.721464
  H      0.926843   -0.328232   -0.885378
  H      0.875745    1.285392   -1.598065
  C     -0.573119   -1.507574    0.857100
  N     -1.006810   -2.017240   -0.325220
  O      0.354714   -2.014910    1.502993
  C     -2.014502   -1.406957   -1.185580
  H     -1.539917   -0.916190   -2.046122
  H     -2.681076   -2.190759   -1.561726
  H     -2.612076   -0.670396   -0.651633
  C     -0.303176   -3.155866   -0.906648
  H      0.346900   -2.828968   -1.729818
  H      0.303354   -3.631437   -0.137685
  H     -1.032534   -3.871075   -1.300984
  S      3.026652    0.837570   -0.695188
  C      3.419125   -0.422264    0.576455
  H      2.852628   -1.337742    0.384915
  H      4.489580   -0.630411    0.500143
  H      3.196768   -0.060682    1.583665

 Multiplicity           Mult            ....    1
 Number of Electrons    NEL             ....  118
 Basis Dimension        Dim             ....  236

ORBITAL ENERGIES
----------------

  NO   OCC          E(Eh)            E(eV)
   0   2.0000     -88.850979     -2417.7581
   1   2.0000     -19.111453      -520.0491
   2   2.0000     -19.109321      -519.9911
   3   2.0000     -14.363487      -390.8504
   4   2.0000     -14.360992      -390.7825
   5   2.0000     -10.285628      -279.8862
   6   2.0000     -10.281090      -279.7627
   7   2.0000     -10.215931      -277.9896
   8   2.0000     -10.212527      -277.8970
   9   2.0000     -10.202621      -277.6274
  10   2.0000     -10.199459      -277.5414
  11   2.0000     -10.196406      -277.4583
  12   2.0000     -10.190479      -277.2970
  13   2.0000     -10.173802      -276.8432
  14   2.0000      -7.926923      -215.7025
  15   2.0000      -5.891273      -160.3097
  16   2.0000      -5.887605      -160.2099
  17   2.0000      -5.880926      -160.0281
  18   2.0000      -1.034287       -28.1444
  19   2.0000      -1.027235       -27.9525
  20   2.0000      -0.936673       -25.4882
  21   2.0000      -0.927958       -25.2510
  22   2.0000      -0.802678       -21.8420
  23   2.0000      -0.760209       -20.6863
  24   2.0000      -0.734525       -19.9875
  25   2.0000      -0.717505       -19.5243
  26   2.0000      -0.706430       -19.2229
  27   2.0000      -0.673038       -18.3143
  28   2.0000      -0.660660       -17.9775
  29   2.0000      -0.587377       -15.9833
  30   2.0000      -0.553496       -15.0614
  31   2.0000      -0.538121       -14.6430
  32   2.0000      -0.512693       -13.9511
  33   2.0000      -0.488616       -13.2959
  34   2.0000      -0.479189       -13.0394
  35   2.0000      -0.465404       -12.6643
  36   2.0000      -0.456672       -12.4267
  37   2.0000      -0.450869       -12.2688
  38   2.0000      -0.446188       -12.1414
  39   2.0000      -0.423616       -11.5272
  40   2.0000      -0.416524       -11.3342
  41   2.0000      -0.412620       -11.2280
  42   2.0000      -0.403507       -10.9800
  43   2.0000      -0.398099       -10.8328
  44   2.0000      -0.396384       -10.7862
  45   2.0000      -0.393493       -10.7075
  46   2.0000      -0.389149       -10.5893
  47   2.0000      -0.388008       -10.5582
  48   2.0000      -0.374822       -10.1994
  49   2.0000      -0.372755       -10.1432
  50   2.0000      -0.359196        -9.7742
  51   2.0000      -0.351564        -9.5666
  52   2.0000      -0.346261        -9.4222
  53   2.0000      -0.309390        -8.4189
  54   2.0000      -0.260800        -7.0967
  55   2.0000      -0.254061        -6.9134
  56   2.0000      -0.241650        -6.5756
  57   2.0000      -0.238510        -6.4902
  58   2.0000      -0.221450        -6.0260
  59   0.0000       0.011748         0.3197
  60   0.0000       0.026644         0.7250
  61   0.0000       0.047123         1.2823
  62   0.0000       0.077507         2.1091
  63   0.0000       0.086885         2.3643

MULLIKEN ATOMIC CHARGES
-----------------------
   0 C :   -0.563961
   1 H :    0.195965
   2 H :    0.199877
   3 H :    0.182750
   4 C :    0.532202
   5 O :   -0.534503
   6 N :   -0.371880
   7 C :   -0.248755
   8 H :    0.183778
   9 H :    0.207370
  10 C :   -0.165314
  11 H :    0.190006
  12 H :    0.188984
  13 C :   -0.435204
  14 H :    0.205876
  15 H :    0.203994
  16 C :    0.514270
  17 N :   -0.358157
  18 O :   -0.540506
  19 C :   -0.346653
  20 H :    0.173110
  21 H :    0.175826
  22 H :    0.194690
  23 C :   -0.331865
  24 H :    0.174071
  25 H :    0.185732
  26 H :    0.174797
  27 S :    0.019356
  28 C :   -0.597911
  29 H :    0.196604
  30 H :    0.197945
  31 H :    0.197508
Sum of atomic charges:   -0.0000000

LOEWDIN ATOMIC CHARGES
----------------------
   0 C :   -0.392808
   1 H :    0.154687
   2 H :    0.159033
   3 H :    0.151166
   4 C :    0.117023
   5 O :   -0.336086
   6 N :   -0.069938
   7 C :   -0.178373
   8 H :    0.146486
   9 H :    0.160999
  10 C :   -0.167218
  11 H :    0.148239
  12 H :    0.145551
  13 C :   -0.343736
  14 H :    0.147321
  15 H :    0.153814
  16 C :    0.092862
  17 N :   -0.067723
  18 O :   -0.338505
  19 C :   -0.285244
  20 H :    0.133331
  21 H :    0.138416
  22 H :    0.148797
  23 C :   -0.280016
  24 H :    0.133435
  25 H :    0.147326
  26 H :    0.138389
  27 S :    0.070175
  28 C :   -0.470709
  29 H :    0.145741
  30 H :    0.155331
  31 H :    0.142232

  Mayer bond orders larger than 0.100000
B(  0-C ,  1-H ) :   0.9183 B(  0-C ,  2-H ) :   0.9196 B(  0-C ,  3-H ) :   0.9381
B(  0-C ,  4-C ) :   0.9952 B(  4-C ,  5-O ) :   1.7479 B(  4-C ,  6-N ) :   1.1599
B(  6-N ,  7-C ) :   0.9497 B(  6-N , 10-C ) :   0.9253 B(  7-C ,  8-H ) :   0.9155
B(  7-C ,  9-H ) :   0.8927 B(  7-C , 16-C ) :   0.9385 B( 10-C , 11-H ) :   0.9225
B( 10-C , 12-H ) :   0.9203 B( 10-C , 13-C ) :   0.9691 B( 13-C , 14-H ) :   0.9084
B( 13-C , 15-H ) :   0.9179 B( 13-C , 27-S ) :   0.9774 B( 16-C , 17-N ) :   1.1996
B( 16-C , 18-O ) :   1.7405 B( 17-N , 18-O ) :   0.1007 B( 17-N , 19-C ) :   0.9489
B( 17-N , 23-C ) :   0.9457 B( 19-C , 20-H ) :   0.9303 B( 19-C , 21-H ) :   0.9337
B( 19-C , 22-H ) :   0.9033 B( 23-C , 24-H ) :   0.9332 B( 23-C , 25-H ) :   0.9263
B( 23-C , 26-H ) :   0.9365 B( 27-S , 28-C ) :   0.9823 B( 28-C , 29-H ) :   0.9226
B( 28-C , 30-H ) :   0.9331 B( 28-C , 31-H ) :   0.9295

Dispersion correction           -0.057305064
FINAL SINGLE POINT ENERGY     -1011.582283283768

DIPOLE MOMENT
-------------
                                X             Y             Z
Electronic contribution:      0.54498       2.38647       3.19996
Nuclear contribution   :     -0.48416      -2.35055      -4.07135
                        -----------------------------------------
Total Dipole Moment    :      0.06082       0.03591      -0.87139
                        -----------------------------------------
Magnitude (a.u.)       :      0.87425
Magnitude (Debye)      :      2.22217

Dispersion correction in the Hessian             ... Starting D4

VIBRATIONAL FREQUENCIES
-----------------------

Scaling factor for frequencies =  1.000000000  (already applied!)

   0:         0.00 cm**-1
   1:         0.00 cm**-1
   2:         0.00 cm**-1
   3:         0.00 cm**-1
   4:         0.00 cm**-1
   5:         0.00 cm**-1
   6:        34.78 cm**-1
   7:        44.57 cm**-1
   8:        50.85 cm**-1
   9:        59.90 cm**-1
  10:        73.33 cm**-1
  11:        85.92 cm**-1
  12:       102.23 cm**-1
  13:       123.91 cm**-1
  14:       134.69 cm**-1
  15:       152.76 cm**-1
  16:       160.13 cm**-1
  17:       168.34 cm**-1
  18:       208.95 cm**-1
  19:       227.52 cm**-1
  20:       256.86 cm**-1
  21:       277.27 cm**-1
  22:       315.48 cm**-1
  23:       351.86 cm**-1
  24:       374.04 cm**-1
  25:       384.86 cm**-1
  26:       432.58 cm**-1
  27:       461.79 cm**-1
  28:       494.75 cm**-1
  29:       579.66 cm**-1
  30:       600.25 cm**-1
  31:       626.35 cm**-1
  32:       687.12 cm**-1
  33:       699.33 cm**-1
  34:       741.28 cm**-1
  35:       760.42 cm**-1
  36:       784.64 cm**-1
  37:       831.49 cm**-1
  38:       958.13 cm**-1
  39:       969.24 cm**-1
  40:       991.85 cm**-1
  41:      1002.30 cm**-1
  42:      1011.17 cm**-1
  43:      1036.04 cm**-1
  44:      1048.57 cm**-1
  45:      1062.61 cm**-1
  46:      1088.08 cm**-1
  47:      1101.80 cm**-1
  48:      1134.70 cm**-1
  49:      1168.28 cm**-1
  50:      1183.81 cm**-1
  51:      1218.20 cm**-1
  52:      1250.43 cm**-1
  53:      1284.70 cm**-1
  54:      1289.13 cm**-1
  55:      1291.46 cm**-1
  56:      1340.62 cm**-1
  57:      1371.01 cm**-1
  58:      1384.30 cm**-1
  59:      1403.59 cm**-1
  60:      1416.63 cm**-1
  61:      1440.65 cm**-1
  62:      1457.10 cm**-1
  63:      1473.44 cm**-1
  64:      1478.27 cm**-1
  65:      1481.36 cm**-1
  66:      1487.32 cm**-1
  67:      1489.74 cm**-1
  68:      1499.84 cm**-1
  69:      1503.08 cm**-1
  70:      1504.12 cm**-1
  71:      1509.06 cm**-1
  72:      1516.77 cm**-1
  73:      1528.59 cm**-1
  74:      1532.10 cm**-1
  75:      1554.98 cm**-1
  76:      1703.37 cm**-1
  77:      1708.49 cm**-1
  78:      3036.27 cm**-1
  79:      3040.76 cm**-1
  80:      3066.98 cm**-1
  81:      3067.09 cm**-1
  82:      3085.76 cm**-1
  83:      3093.28 cm**-1
  84:      3098.86 cm**-1
  85:      3103.20 cm**-1
  86:      3105.45 cm**-1
  87:      3133.09 cm**-1
  88:      3140.29 cm**-1
  89:      3153.37 cm**-1
  90:      3158.81 cm**-1
  91:      3162.05 cm**-1
  92:      3168.07 cm**-1
  93:      3172.53 cm**-1
  94:      3191.10 cm**-1
  95:      3194.29 cm**-1

IR SPECTRUM
-----------

 Mode   freq       eps      Int      T**2         TX        TY        TZ
       cm**-1   L/(mol*cm) km/mol    a.u.
----------------------------------------------------------------------------
  6:     34.78   0.000377    1.91  0.003386  ( 0.025415  0.000809 -0.052336)
  7:     44.57   0.000575    2.91  0.004028  (-0.028012 -0.051873  0.023508)
  8:     50.85   0.000574    2.90  0.003524  ( 0.053504  0.025276 -0.004725)
  9:     59.90   0.000675    3.41  0.003519  (-0.039603  0.040214 -0.018246)
 10:     73.33   0.001383    6.99  0.005885  (-0.048407 -0.021579  0.055461)
 11:     85.92   0.000581    2.93  0.002109  (-0.004081  0.038798 -0.024233)
 12:    102.23   0.003104   15.69  0.009476  ( 0.017214 -0.072396 -0.062756)
 13:    123.91   0.001126    5.69  0.002836  ( 0.012995  0.035745  0.037269)
 14:    134.69   0.001246    6.30  0.002886  (-0.008377 -0.053053 -0.001241)
 15:    152.76   0.000131    0.66  0.000268  ( 0.010409  0.011869  0.004343)
 16:    160.13   0.000338    1.71  0.000658  ( 0.002262  0.021407 -0.013963)
 17:    168.34   0.000007    0.04  0.000013  ( 0.001656 -0.000474  0.003168)
 18:    208.95   0.000797    4.03  0.001191  (-0.009314 -0.032874 -0.004822)
 19:    227.52   0.000185    0.94  0.000254  ( 0.011736 -0.006092 -0.008895)
 20:    256.86   0.001713    8.65  0.002081  (-0.022013 -0.034795  0.019629)
 21:    277.27   0.001360    6.87  0.001531  ( 0.026491  0.028268  0.005495)
 22:    315.48   0.000565    2.86  0.000559  (-0.022014 -0.004805  0.007167)
 23:    351.86   0.002995   15.13  0.002656  (-0.013412 -0.012158 -0.048252)
 24:    374.04   0.003385   17.11  0.002824  (-0.016330  0.044921  0.023233)
 25:    384.86   0.001830    9.25  0.001484  (-0.007271  0.018014  0.033261)
 26:    432.58   0.000105    0.53  0.000076  ( 0.001894  0.008513 -0.000018)
 27:    461.79   0.002898   14.65  0.001958  ( 0.043562 -0.005996 -0.004982)
 28:    494.75   0.004616   23.33  0.002911  ( 0.020490  0.039673 -0.030293)
 29:    579.66   0.004194   21.20  0.002258  (-0.023534  0.036496  0.019294)
 30:    600.25   0.002611   13.20  0.001358  ( 0.026195 -0.022555 -0.012754)
 31:    626.35   0.004882   24.67  0.002433  ( 0.026769  0.004846  0.041140)
 32:    687.12   0.002674   13.51  0.001214  ( 0.011947  0.017006 -0.027970)
 33:    699.33   0.000987    4.99  0.000441  (-0.015323 -0.013337 -0.005288)
 34:    741.28   0.001806    9.13  0.000760  ( 0.016582  0.018978 -0.011184)
 35:    760.42   0.003237   16.36  0.001328  (-0.003480  0.033641  0.013587)
 36:    784.64   0.002752   13.91  0.001095  (-0.030750  0.007344 -0.009758)
 37:    831.49   0.004356   22.01  0.001635  ( 0.016895  0.021459  0.029816)
 38:    958.13   0.000546    2.76  0.000178  (-0.009146  0.000066 -0.009706)
 39:    969.24   0.002831   14.31  0.000911  (-0.015349 -0.022249  0.013447)
 40:    991.85   0.001729    8.74  0.000544  ( 0.007222 -0.009194 -0.020179)
 41:   1002.30   0.005579   28.20  0.001737  ( 0.009376  0.014661  0.037871)
 42:   1011.17   0.007393   37.36  0.002281  (-0.038363  0.026459  0.010472)
 43:   1036.04   0.002514   12.71  0.000757  (-0.003332  0.014335  0.023253)
 44:   1048.57   0.006695   33.83  0.001992  ( 0.041770 -0.013396  0.008260)
 45:   1062.61   0.002322   11.73  0.000682  (-0.005267 -0.011487 -0.022853)
 46:   1088.08   0.002766   13.98  0.000793  ( 0.020625 -0.018461  0.005212)
 47:   1101.80   0.003712   18.76  0.001051  (-0.003276  0.003137 -0.032105)
 48:   1134.70   0.000601    3.04  0.000165  (-0.003284  0.012356 -0.001318)
 49:   1168.28   0.016168   81.70  0.004319  (-0.043090 -0.031571 -0.038277)
 50:   1183.81   0.000992    5.01  0.000262  (-0.008212 -0.006564 -0.012288)
 51:   1218.20   0.010584   53.49  0.002711  (-0.001645  0.016390 -0.049396)
 52:   1250.43   0.017163   86.74  0.004283  ( 0.043126 -0.046853  0.015106)
 53:   1284.70   0.007126   36.01  0.001731  ( 0.001140  0.004419  0.041353)
 54:   1289.13   0.024790  125.28  0.006001  ( 0.044047 -0.063163  0.008443)
 55:   1291.46   0.011200   56.60  0.002706  ( 0.005258 -0.048184  0.018895)
 56:   1340.62   0.006035   30.50  0.001405  ( 0.029366 -0.022013  0.007606)
 57:   1371.01   0.000477    2.41  0.000109  ( 0.007436  0.004276  0.005920)
 58:   1384.30   0.000820    4.14  0.000185  ( 0.002871  0.004051 -0.012658)
 59:   1403.59   0.010351   52.31  0.002301  ( 0.047123 -0.004865 -0.007558)
 60:   1416.63   0.004091   20.68  0.000901  ( 0.011114 -0.023449  0.015096)
 61:   1440.65   0.013868   70.09  0.003004  ( 0.015665  0.024670  0.046369)
 62:   1457.10   0.018138   91.66  0.003885  ( 0.001259 -0.051033 -0.035760)
 63:   1473.44   0.043623  220.45  0.009239  ( 0.073224 -0.054716  0.029721)
 64:   1478.27   0.010885   55.01  0.002298  ( 0.033821 -0.033962  0.000669)
 65:   1481.36   0.004657   23.54  0.000981  (-0.030118 -0.005486  0.006627)
 66:   1487.32   0.001487    7.51  0.000312  ( 0.005370 -0.015489 -0.006575)
 67:   1489.74   0.000850    4.29  0.000178  ( 0.004295 -0.008123  0.009672)
 68:   1499.84   0.001761    8.90  0.000366  (-0.015346 -0.009538 -0.006326)
 69:   1503.08   0.003671   18.55  0.000762  ( 0.001531  0.009777 -0.025774)
 70:   1504.12   0.003806   19.24  0.000790  ( 0.006099  0.026487  0.007136)
 71:   1509.06   0.001236    6.25  0.000256  ( 0.008791 -0.012419  0.004905)
 72:   1516.77   0.003797   19.19  0.000781  ( 0.017509  0.021075 -0.005521)
 73:   1528.59   0.008944   45.20  0.001826  (-0.036736  0.004739 -0.021307)
 74:   1532.10   0.006833   34.53  0.001392  (-0.004705 -0.020639  0.030719)
 75:   1554.98   0.017417   88.02  0.003495  ( 0.009095 -0.037621 -0.044690)
 76:   1703.37   0.206215  1042.13  0.037779  ( 0.176149 -0.011807  0.081311)
 77:   1708.49   0.039290  198.56  0.007177  (-0.023428 -0.014801  0.080054)
 78:   3036.27   0.005178   26.17  0.000532  (-0.018121  0.013763 -0.003795)
 79:   3040.76   0.018657   94.29  0.001915  ( 0.001202 -0.006749 -0.043218)
 80:   3066.98   0.000942    4.76  0.000096  (-0.003628 -0.008177  0.003982)
 81:   3067.09   0.004283   21.65  0.000436  (-0.005047  0.013062 -0.015483)
 82:   3085.76   0.006472   32.71  0.000655  ( 0.003203 -0.007838  0.024143)
 83:   3093.28   0.000406    2.05  0.000041  (-0.004660  0.001958 -0.003924)
 84:   3098.86   0.012299   62.15  0.001239  ( 0.024859  0.024892  0.000982)
 85:   3103.20   0.006837   34.55  0.000688  (-0.014266 -0.005833 -0.021213)
 86:   3105.45   0.006752   34.12  0.000679  ( 0.017710  0.018994  0.002033)
 87:   3133.09   0.001856    9.38  0.000185  ( 0.000909 -0.003854 -0.013009)
 88:   3140.29   0.000131    0.66  0.000013  ( 0.003046 -0.001915  0.000328)
 89:   3153.37   0.003310   16.73  0.000328  ( 0.003461 -0.012246 -0.012871)
 90:   3158.81   0.005214   26.35  0.000515  ( 0.000428 -0.020350  0.010040)
 91:   3162.05   0.001191    6.02  0.000118  ( 0.010534  0.002516 -0.000504)
 92:   3168.07   0.001475    7.45  0.000145  (-0.001179  0.011216  0.004252)
 93:   3172.53   0.002647   13.38  0.000260  ( 0.015128 -0.004689  0.003088)
 94:   3191.10   0.001067    5.39  0.000104  (-0.005042  0.007587 -0.004624)
 95:   3194.29   0.000468    2.37  0.000046  ( 0.004402  0.005050 -0.000928)

--------------------------
THERMOCHEMISTRY AT 298.15K
--------------------------

Temperature         ... 298.15 K
Pressure            ... 1.00 atm
Total Mass          ... 218.31 AMU

Throughout the following assumptions are being made:
  (1) The electronic state is orbitally nondegenerate
  (2) There are no thermally accessible electronically excited states
  (3) Hindered rotations indicated by low frequency modes are not
      treated as such but are treated as vibrations and this may
      cause some error
  (4) All equations used are the standard statistical mechanics
      equations for an ideal gas
  (5) All vibrations are strictly harmonic

freq.      34.78  E(vib)   ...       0.54
freq.      44.57  E(vib)   ...       0.53
freq.      50.85  E(vib)   ...       0.52
freq.      59.90  E(vib)   ...       0.51
freq.      73.33  E(vib)   ...       0.49
freq.      85.92  E(vib)   ...       0.48
freq.     102.23  E(vib)   ...       0.46
freq.     123.91  E(vib)   ...       0.43
freq.     134.69  E(vib)   ...       0.42
freq.     152.76  E(vib)   ...       0.40
freq.     160.13  E(vib)   ...       0.39
freq.     168.34  E(vib)   ...       0.38
freq.     208.95  E(vib)   ...       0.34
freq.     227.52  E(vib)   ...       0.33
freq.     256.86  E(vib)   ...       0.30
freq.     277.27  E(vib)   ...       0.28
freq.     315.48  E(vib)   ...       0.25
freq.     351.86  E(vib)   ...       0.23
freq.     374.04  E(vib)   ...       0.21
freq.     384.86  E(vib)   ...       0.20
freq.     432.58  E(vib)   ...       0.18
freq.     461.79  E(vib)   ...       0.16
freq.     494.75  E(vib)   ...       0.14
freq.     579.66  E(vib)   ...       0.11
freq.     600.25  E(vib)   ...       0.10
freq.     626.35  E(vib)   ...       0.09
freq.     687.12  E(vib)   ...       0.07
freq.     699.33  E(vib)   ...       0.07
freq.     741.28  E(vib)   ...       0.06
freq.     760.42  E(vib)   ...       0.06
freq.     784.64  E(vib)   ...       0.05
freq.     831.49  E(vib)   ...       0.04
freq.     958.13  E(vib)   ...       0.03
freq.     969.24  E(vib)   ...       0.03
freq.     991.85  E(vib)   ...       0.02
freq.    1002.30  E(vib)   ...       0.02
freq.    1011.17  E(vib)   ...       0.02
freq.    1036.04  E(vib)   ...       0.02
freq.    1048.57  E(vib)   ...       0.02
freq.    1062.61  E(vib)   ...       0.02
freq.    1088.08  E(vib)   ...       0.02
freq.    1101.80  E(vib)   ...       0.02
freq.    1134.70  E(vib)   ...       0.01
freq.    1168.28  E(vib)   ...       0.01
freq.    1183.81  E(vib)   ...       0.01
freq.    1218.20  E(vib)   ...       0.01
freq.    1250.43  E(vib)   ...       0.01
freq.    1284.70  E(vib)   ...       0.01
freq.    1289.13  E(vib)   ...       0.01
freq.    1291.46  E(vib)   ...       0.01
freq.    1340.62  E(vib)   ...       0.01
freq.    1371.01  E(vib)   ...       0.01
freq.    1384.30  E(vib)   ...       0.00
freq.    1403.59  E(vib)   ...       0.00
freq.    1416.63  E(vib)   ...       0.00
freq.    1440.65  E(vib)   ...       0.00
freq.    1457.10  E(vib)   ...       0.00
freq.    1473.44  E(vib)   ...       0.00
freq.    1478.27  E(vib)   ...       0.00
freq.    1481.36  E(vib)   ...       0.00
freq.    1487.32  E(vib)   ...       0.00
freq.    1489.74  E(vib)   ...       0.00
freq.    1499.84  E(vib)   ...       0.00
freq.    1503.08  E(vib)   ...       0.00
freq.    1504.12  E(vib)   ...       0.00
freq.    1509.06  E(vib)   ...       0.00
freq.    1516.77  E(vib)   ...       0.00
freq.    1528.59  E(vib)   ...       0.00
freq.    1532.10  E(vib)   ...       0.00
freq.    1554.98  E(vib)   ...       0.00
freq.    1703.37  E(vib)   ...       0.00
freq.    1708.49  E(vib)   ...       0.00
freq.    3036.27  E(vib)   ...       0.00
freq.    3040.76  E(vib)   ...       0.00
freq.    3066.98  E(vib)   ...       0.00
freq.    3067.09  E(vib)   ...       0.00
freq.    3085.76  E(vib)   ...       0.00
freq.    3093.28  E(vib)   ...       0.00
freq.    3098.86  E(vib)   ...       0.00
freq.    3103.20  E(vib)   ...       0.00
freq.    3105.45  E(vib)   ...       0.00
freq.    3133.09  E(vib)   ...       0.00
freq.    3140.29  E(vib)   ...       0.00
freq.    3153.37  E(vib)   ...       0.00
freq.    3158.81  E(vib)   ...       0.00
freq.    3162.05  E(vib)   ...       0.00
freq.    3168.07  E(vib)   ...       0.00
freq.    3172.53  E(vib)   ...       0.00
freq.    3191.10  E(vib)   ...       0.00
freq.    3194.29  E(vib)   ...       0.00

------------
INNER ENERGY
------------

The inner energy is: U= E(el) + E(ZPE) + E(vib) + E(rot) + E(trans)
    E(el)   - is the total energy from the electronic structure calculation
              = E(kin-el) + E(nuc-el) + E(el-el) + E(nuc-nuc)
    E(ZPE)  - the the zero temperature vibrational energy from the frequency calculation
    E(vib)  - the the finite temperature correction to E(ZPE) due to population
              of excited vibrational states
    E(rot)  - is the rotational thermal energy
    E(trans)- is the translational thermal energy

Summary of contributions to the inner energy U:
Electronic energy                ...  -1011.58228328 Eh
Zero point energy                ...      0.27414121 Eh     172.03 kcal/mol
Thermal vibrational correction   ...      0.01467862 Eh       9.21 kcal/mol
Thermal rotational correction    ...      0.00141627 Eh       0.89 kcal/mol
Thermal translational correction ...      0.00141627 Eh       0.89 kcal/mol
-----------------------------------------------------------------------
Total thermal energy                  -1011.29063091 Eh

Summary of corrections to the electronic energy:
(perhaps to be used in another calculation)
Total thermal correction                  0.01751116 Eh      10.99 kcal/mol
Non-thermal (ZPE) correction              0.27414121 Eh     172.03 kcal/mol
-----------------------------------------------------------------------
Total correction                          0.29165238 Eh     183.01 kcal/mol

--------
ENTHALPY
--------

The enthalpy is H = U + kB*T
                kB is Boltzmann's constant
Total free energy                 ...  -1011.29063091 Eh
Thermal Enthalpy correction       ...      0.00094421 Eh       0.59 kcal/mol
-----------------------------------------------------------------------
Total Enthalpy                    ...  -1011.28968670 Eh

Note: Only C1 symmetry has been detected, increase convergence thresholds
      if your molecule has a higher symmetry. Symmetry factor of 1.0 is
      used for the rotational entropy correction.

Note: Rotational entropy computed according to Herzberg
Infrared and Raman Spectra, Chapter V,1, Van Nostrand Reinhold, 1945
Point Group:  C1, Symmetry Number:   1
Rotational constants in cm-1:     0.021326     0.016611     0.011436

                             ****ORCA TERMINATED NORMALLY****
TOTAL RUN TIME: 0 days 0 hours 24 minutes 10 seconds 440 msec
