                         Program Version 5.0.4 -  RELEASE  -
|  1> ! OPT FREQ B3LYP 6-31G(d) D4 AUTOAUX
|  2> ! CPCM
|  3>
|  4> %cpcm
|  5> epsilon 9.8629
|  6> refrac  1.4295
|  7> end
|  8>
|  9> %PAL NPROCS 4 END
| 10>
| 11> %maxcore 3375
| 12>
| 13> *xyzfile 0 1 /users/fjb15167/WWenergy/structures/NfeCl.xyz
| 14>
| 15>                          ****END OF INPUT****
 Total Charge           Charge          ....    0
 Multiplicity           Mult            ....    1
 Number of Electrons    NEL             ....  150
Dispersion correction           -0.075355436
FINAL SINGLE POINT ENERGY     -1264.623165325537
Dispersion correction            ... Starting D4
Dispersion correction           -0.074503853
FINAL SINGLE POINT ENERGY     -1264.623598499360
Dispersion correction            ... Starting D4
Dispersion correction           -0.074917989
FINAL SINGLE POINT ENERGY     -1264.623789173332
Dispersion correction            ... Starting D4
FINAL SINGLE POINT ENERGY     -1264.623821301481
FINAL SINGLE POINT ENERGY     -1264.623847024368
FINAL SINGLE POINT ENERGY     -1264.623867780547
FINAL SINGLE POINT ENERGY     -1264.623874710027
FINAL SINGLE POINT ENERGY     -1264.623880783302
FINAL SINGLE POINT ENERGY     -1264.623885951777
Dispersion correction           -0.075095707
FINAL SINGLE POINT ENERGY     -1264.623888067453
Dispersion correction            ... Starting D4
Dispersion correction           -0.075095486
FINAL SINGLE POINT ENERGY     -1264.623886554067
Dispersion correction            ... Starting D4
                    ***********************HURRAY********************

CARTESIAN COORDINATES (ANGSTROEM)
---------------------------------
  C      3.118115    3.162643    0.331981
  H      2.417381    2.946032    1.144184
  H      2.578099    3.735403   -0.430941
  H      3.936462    3.772177    0.718159
  C      3.717012    1.899344   -0.260084
  O      4.942931    1.744859   -0.320361
  N      2.847267    0.951856   -0.727137
  C      3.372398   -0.236802   -1.398155
  H      3.034997   -0.244422   -2.439373
  H      4.460303   -0.176584   -1.380816
  C      1.388473    1.073967   -0.672053
  H      1.093265    2.114879   -0.825545
  H      0.990089    0.502554   -1.515466
  C      0.768702    0.538664    0.638595
  H      1.220210   -0.428190    0.877914
  H      1.007270    1.218054    1.463753
  C     -0.725582    0.381200    0.500108
  C     -1.251391   -0.746799   -0.146691
  C     -1.609639    1.362444    0.962549
  C     -2.625646   -0.899650   -0.324611
  H     -0.573710   -1.513437   -0.515587
  C     -2.989402    1.228853    0.794701
  H     -1.219382    2.243624    1.466044
  C     -3.479547    0.094794    0.151540
  H     -3.027502   -1.776822   -0.821219
  H     -3.669799    1.991430    1.159405
  C      2.841446   -1.539837   -0.786050
  N      3.328225   -1.932687    0.420753
  O      1.976483   -2.181530   -1.398527
  C      4.236086   -1.150750    1.252875
  H      3.687313   -0.672346    2.075640
  H      4.988026   -1.820043    1.685181
  H      4.746500   -0.377644    0.681390
  C      2.752357   -3.107590    1.066326
  H      2.062520   -2.808870    1.867756
  H      2.209223   -3.690932    0.324758
  H      3.553715   -3.712515    1.503442
  Cl    -5.222268   -0.090327   -0.062438

 Multiplicity           Mult            ....    1
 Number of Electrons    NEL             ....  150
 Basis Dimension        Dim             ....  308

ORBITAL ENERGIES
----------------

  NO   OCC          E(Eh)            E(eV)
   0   2.0000    -101.528424     -2762.7289
   1   2.0000     -19.110455      -520.0219
   2   2.0000     -19.109897      -520.0067
   3   2.0000     -14.362466      -390.8226
   4   2.0000     -14.361764      -390.8035
   5   2.0000     -10.284888      -279.8660
   6   2.0000     -10.281586      -279.7762
   7   2.0000     -10.242915      -278.7239
   8   2.0000     -10.215135      -277.9680
   9   2.0000     -10.212639      -277.9000
  10   2.0000     -10.200966      -277.5824
  11   2.0000     -10.197725      -277.4942
  12   2.0000     -10.194257      -277.3998
  13   2.0000     -10.192404      -277.3494
  14   2.0000     -10.192136      -277.3421
  15   2.0000     -10.187862      -277.2258
  16   2.0000     -10.186274      -277.1826
  17   2.0000     -10.180945      -277.0376
  18   2.0000     -10.174913      -276.8735
  19   2.0000      -9.460546      -257.4346
  20   2.0000      -7.223493      -196.5612
  21   2.0000      -7.214129      -196.3064
  22   2.0000      -7.213807      -196.2977
  23   2.0000      -1.034054       -28.1380
  24   2.0000      -1.027279       -27.9537
  25   2.0000      -0.936276       -25.4774
  26   2.0000      -0.928676       -25.2706
  27   2.0000      -0.886668       -24.1275
  28   2.0000      -0.839080       -22.8325
  29   2.0000      -0.779918       -21.2226
  30   2.0000      -0.758532       -20.6407
  31   2.0000      -0.752051       -20.4643
  32   2.0000      -0.723837       -19.6966
  33   2.0000      -0.713879       -19.4256
  34   2.0000      -0.705091       -19.1865
  35   2.0000      -0.672297       -18.2941
  36   2.0000      -0.643566       -17.5123
  37   2.0000      -0.616299       -16.7703
  38   2.0000      -0.579811       -15.7775
  39   2.0000      -0.553277       -15.0554
  40   2.0000      -0.539250       -14.6737
  41   2.0000      -0.514381       -13.9970
  42   2.0000      -0.504328       -13.7235
  43   2.0000      -0.487903       -13.2765
  44   2.0000      -0.480037       -13.0625
  45   2.0000      -0.470084       -12.7916
  46   2.0000      -0.465803       -12.6751
  47   2.0000      -0.461291       -12.5524
  48   2.0000      -0.455417       -12.3925
  49   2.0000      -0.446908       -12.1610
  50   2.0000      -0.428890       -11.6707
  51   2.0000      -0.419779       -11.4228
  52   2.0000      -0.417816       -11.3693
  53   2.0000      -0.411050       -11.1852
  54   2.0000      -0.404593       -11.0095
  55   2.0000      -0.398277       -10.8377
  56   2.0000      -0.396967       -10.8020
  57   2.0000      -0.396490       -10.7890
  58   2.0000      -0.393786       -10.7155
  59   2.0000      -0.385943       -10.5020
  60   2.0000      -0.380534       -10.3548
  61   2.0000      -0.374747       -10.1974
  62   2.0000      -0.368206       -10.0194
  63   2.0000      -0.361418        -9.8347
  64   2.0000      -0.350292        -9.5319
  65   2.0000      -0.345980        -9.4146
  66   2.0000      -0.337006        -9.1704
  67   2.0000      -0.325555        -8.8588
  68   2.0000      -0.312672        -8.5082
  69   2.0000      -0.260809        -7.0970
  70   2.0000      -0.257693        -7.0122
  71   2.0000      -0.253354        -6.8941
  72   2.0000      -0.244167        -6.6441
  73   2.0000      -0.239434        -6.5153
  74   2.0000      -0.231732        -6.3057
  75   0.0000      -0.009657        -0.2628
  76   0.0000      -0.007289        -0.1984
  77   0.0000       0.013551         0.3688
  78   0.0000       0.026923         0.7326
  79   0.0000       0.031288         0.8514

MULLIKEN ATOMIC CHARGES
-----------------------
   0 C :   -0.563154
   1 H :    0.192338
   2 H :    0.196426
   3 H :    0.183092
   4 C :    0.529422
   5 O :   -0.530282
   6 N :   -0.369383
   7 C :   -0.248722
   8 H :    0.182627
   9 H :    0.206733
  10 C :   -0.167703
  11 H :    0.182445
  12 H :    0.181364
  13 C :   -0.372566
  14 H :    0.181168
  15 H :    0.169865
  16 C :    0.153226
  17 C :   -0.190231
  18 C :   -0.191072
  19 C :   -0.138870
  20 H :    0.162391
  21 C :   -0.137938
  22 H :    0.158210
  23 C :   -0.079798
  24 H :    0.174280
  25 H :    0.173308
  26 C :    0.517678
  27 N :   -0.358614
  28 O :   -0.534974
  29 C :   -0.345887
  30 H :    0.170599
  31 H :    0.173833
  32 H :    0.196865
  33 C :   -0.330803
  34 H :    0.171326
  35 H :    0.187632
  36 H :    0.172721
  37 Cl:   -0.057549
Sum of atomic charges:   -0.0000000

LOEWDIN ATOMIC CHARGES
----------------------
   0 C :   -0.392661
   1 H :    0.152532
   2 H :    0.157162
   3 H :    0.151141
   4 C :    0.115160
   5 O :   -0.332866
   6 N :   -0.070000
   7 C :   -0.177927
   8 H :    0.145865
   9 H :    0.160504
  10 C :   -0.155704
  11 H :    0.143476
  12 H :    0.143030
  13 C :   -0.237611
  14 H :    0.143615
  15 H :    0.136864
  16 C :   -0.019992
  17 C :   -0.128236
  18 C :   -0.129172
  19 C :   -0.138444
  20 H :    0.146392
  21 C :   -0.139483
  22 H :    0.145431
  23 C :   -0.092417
  24 H :    0.153999
  25 H :    0.153680
  26 C :    0.094652
  27 N :   -0.068526
  28 O :   -0.335542
  29 C :   -0.284991
  30 H :    0.131850
  31 H :    0.137400
  32 H :    0.149729
  33 C :   -0.279641
  34 H :    0.132026
  35 H :    0.148393
  36 H :    0.137262
  37 Cl:    0.003049

  Mayer bond orders larger than 0.100000
B(  0-C ,  1-H ) :   0.9189 B(  0-C ,  2-H ) :   0.9210 B(  0-C ,  3-H ) :   0.9385
B(  0-C ,  4-C ) :   0.9935 B(  4-C ,  5-O ) :   1.7522 B(  4-C ,  6-N ) :   1.1606
B(  6-N ,  7-C ) :   0.9525 B(  6-N , 10-C ) :   0.9273 B(  7-C ,  8-H ) :   0.9158
B(  7-C ,  9-H ) :   0.8930 B(  7-C , 26-C ) :   0.9375 B( 10-C , 11-H ) :   0.9213
B( 10-C , 12-H ) :   0.9209 B( 10-C , 13-C ) :   0.9706 B( 13-C , 14-H ) :   0.9169
B( 13-C , 15-H ) :   0.9234 B( 13-C , 16-C ) :   0.9774 B( 16-C , 17-C ) :   1.4213
B( 16-C , 18-C ) :   1.4386 B( 17-C , 19-C ) :   1.4415 B( 17-C , 20-H ) :   0.9053
B( 18-C , 21-C ) :   1.4296 B( 18-C , 22-H ) :   0.9192 B( 19-C , 23-C ) :   1.4125
B( 19-C , 24-H ) :   0.9188 B( 21-C , 23-C ) :   1.4240 B( 21-C , 25-H ) :   0.9187
B( 23-C , 37-Cl) :   0.9838 B( 26-C , 27-N ) :   1.1973 B( 26-C , 28-O ) :   1.7341
B( 27-N , 29-C ) :   0.9497 B( 27-N , 33-C ) :   0.9466 B( 29-C , 30-H ) :   0.9306
B( 29-C , 31-H ) :   0.9345 B( 29-C , 32-H ) :   0.9027 B( 33-C , 34-H ) :   0.9337
B( 33-C , 35-H ) :   0.9259 B( 33-C , 36-H ) :   0.9372

Dispersion correction           -0.075092542
FINAL SINGLE POINT ENERGY     -1264.623887041928

DIPOLE MOMENT
-------------
                                X             Y             Z
Electronic contribution:    -28.77633      -0.57105      -5.38173
Nuclear contribution   :     29.21522       1.20651       6.75109
                        -----------------------------------------
Total Dipole Moment    :      0.43889       0.63546       1.36936
                        -----------------------------------------
Magnitude (a.u.)       :      1.57212
Magnitude (Debye)      :      3.99602

Dispersion correction in the Hessian             ... Starting D4

VIBRATIONAL FREQUENCIES
-----------------------

Scaling factor for frequencies =  1.000000000  (already applied!)

   0:         0.00 cm**-1
   1:         0.00 cm**-1
   2:         0.00 cm**-1
   3:         0.00 cm**-1
   4:         0.00 cm**-1
   5:         0.00 cm**-1
   6:        20.60 cm**-1
   7:        33.43 cm**-1
   8:        38.49 cm**-1
   9:        53.95 cm**-1
  10:        67.44 cm**-1
  11:        79.35 cm**-1
  12:        81.71 cm**-1
  13:       104.76 cm**-1
  14:       113.84 cm**-1
  15:       125.53 cm**-1
  16:       148.29 cm**-1
  17:       160.66 cm**-1
  18:       165.92 cm**-1
  19:       219.25 cm**-1
  20:       249.32 cm**-1
  21:       260.72 cm**-1
  22:       275.17 cm**-1
  23:       320.73 cm**-1
  24:       342.20 cm**-1
  25:       368.13 cm**-1
  26:       380.91 cm**-1
  27:       391.75 cm**-1
  28:       420.97 cm**-1
  29:       426.12 cm**-1
  30:       436.34 cm**-1
  31:       464.43 cm**-1
  32:       493.67 cm**-1
  33:       524.81 cm**-1
  34:       580.23 cm**-1
  35:       598.62 cm**-1
  36:       620.24 cm**-1
  37:       645.66 cm**-1
  38:       667.32 cm**-1
  39:       700.78 cm**-1
  40:       728.04 cm**-1
  41:       765.07 cm**-1
  42:       785.75 cm**-1
  43:       817.86 cm**-1
  44:       830.47 cm**-1
  45:       847.71 cm**-1
  46:       870.62 cm**-1
  47:       960.35 cm**-1
  48:       966.50 cm**-1
  49:       982.99 cm**-1
  50:      1002.45 cm**-1
  51:      1010.62 cm**-1
  52:      1027.38 cm**-1
  53:      1031.14 cm**-1
  54:      1032.63 cm**-1
  55:      1061.86 cm**-1
  56:      1088.90 cm**-1
  57:      1096.01 cm**-1
  58:      1103.14 cm**-1
  59:      1135.16 cm**-1
  60:      1139.68 cm**-1
  61:      1170.92 cm**-1
  62:      1184.76 cm**-1
  63:      1208.19 cm**-1
  64:      1218.81 cm**-1
  65:      1236.28 cm**-1
  66:      1251.07 cm**-1
  67:      1285.58 cm**-1
  68:      1290.26 cm**-1
  69:      1333.08 cm**-1
  70:      1335.37 cm**-1
  71:      1336.94 cm**-1
  72:      1362.64 cm**-1
  73:      1372.75 cm**-1
  74:      1406.58 cm**-1
  75:      1415.91 cm**-1
  76:      1442.88 cm**-1
  77:      1451.90 cm**-1
  78:      1457.98 cm**-1
  79:      1475.75 cm**-1
  80:      1483.65 cm**-1
  81:      1490.52 cm**-1
  82:      1500.96 cm**-1
  83:      1505.43 cm**-1
  84:      1511.09 cm**-1
  85:      1514.07 cm**-1
  86:      1519.09 cm**-1
  87:      1531.47 cm**-1
  88:      1534.74 cm**-1
  89:      1536.20 cm**-1
  90:      1556.18 cm**-1
  91:      1630.87 cm**-1
  92:      1651.33 cm**-1
  93:      1706.05 cm**-1
  94:      1711.48 cm**-1
  95:      3034.57 cm**-1
  96:      3039.21 cm**-1
  97:      3065.79 cm**-1
  98:      3076.37 cm**-1
  99:      3084.93 cm**-1
 100:      3089.99 cm**-1
 101:      3097.34 cm**-1
 102:      3104.11 cm**-1
 103:      3121.63 cm**-1
 104:      3132.14 cm**-1
 105:      3142.21 cm**-1
 106:      3167.71 cm**-1
 107:      3172.17 cm**-1
 108:      3191.45 cm**-1
 109:      3193.34 cm**-1
 110:      3194.11 cm**-1
 111:      3195.32 cm**-1
 112:      3223.83 cm**-1
 113:      3224.76 cm**-1

IR SPECTRUM
-----------

 Mode   freq       eps      Int      T**2         TX        TY        TZ
       cm**-1   L/(mol*cm) km/mol    a.u.
----------------------------------------------------------------------------
  6:     20.60   0.000105    0.53  0.001592  ( 0.031453  0.024516  0.001301)
  7:     33.43   0.000024    0.12  0.000226  (-0.000083 -0.014966 -0.001487)
  8:     38.49   0.000480    2.43  0.003892  ( 0.061517 -0.002083  0.010146)
  9:     53.95   0.001133    5.73  0.006555  ( 0.043406 -0.011411 -0.067387)
 10:     67.44   0.000930    4.70  0.004305  (-0.024278  0.052552  0.030889)
 11:     79.35   0.000510    2.58  0.002004  (-0.030351  0.029441  0.014698)
 12:     81.71   0.000600    3.03  0.002293  (-0.015467  0.043351  0.013221)
 13:    104.76   0.001156    5.84  0.003443  (-0.006720  0.037840 -0.044338)
 14:    113.84   0.001636    8.27  0.004485  ( 0.007740  0.048848 -0.045160)
 15:    125.53   0.000862    4.36  0.002144  (-0.017688  0.042347 -0.006122)
 16:    148.29   0.000247    1.25  0.000521  ( 0.001150 -0.021130 -0.008546)
 17:    160.66   0.000342    1.73  0.000663  (-0.001967  0.025126 -0.005306)
 18:    165.92   0.000126    0.63  0.000236  (-0.001797 -0.007917 -0.013049)
 19:    219.25   0.000189    0.95  0.000269  (-0.012141  0.005114  0.009745)
 20:    249.32   0.001335    6.75  0.001671  (-0.021377  0.031237  0.015444)
 21:    260.72   0.000341    1.73  0.000409  (-0.011162  0.016209  0.004627)
 22:    275.17   0.001996   10.09  0.002264  ( 0.036224 -0.030412  0.005171)
 23:    320.73   0.000621    3.14  0.000604  ( 0.004859 -0.024012  0.002024)
 24:    342.20   0.000765    3.87  0.000698  ( 0.009195  0.001642  0.024709)
 25:    368.13   0.002251   11.37  0.001908  (-0.013490  0.026761 -0.031779)
 26:    380.91   0.000404    2.04  0.000331  ( 0.005004 -0.011080  0.013524)
 27:    391.75   0.001720    8.69  0.001370  (-0.005306 -0.010140  0.035202)
 28:    420.97   0.000011    0.06  0.000008  ( 0.002376 -0.001122 -0.001167)
 29:    426.12   0.005385   27.21  0.003944  (-0.055227 -0.028706  0.008347)
 30:    436.34   0.000580    2.93  0.000415  (-0.020122  0.003142 -0.000253)
 31:    464.43   0.002484   12.55  0.001669  ( 0.038878  0.011289 -0.005460)
 32:    493.67   0.004346   21.96  0.002747  ( 0.026158 -0.040135 -0.021268)
 33:    524.81   0.004952   25.02  0.002944  ( 0.004320 -0.012934  0.052520)
 34:    580.23   0.003819   19.30  0.002054  (-0.009862 -0.037082  0.024114)
 35:    598.62   0.002354   11.90  0.001227  ( 0.015156  0.025184 -0.019062)
 36:    620.24   0.002540   12.84  0.001278  (-0.009756 -0.002214  0.034320)
 37:    645.66   0.000082    0.41  0.000040  ( 0.005454  0.001461  0.002773)
 38:    667.32   0.007072   35.74  0.003307  (-0.052025 -0.010506 -0.022134)
 39:    700.78   0.000318    1.61  0.000142  (-0.007871  0.005859 -0.006732)
 40:    728.04   0.000940    4.75  0.000403  ( 0.011246  0.012955 -0.010431)
 41:    765.07   0.003383   17.10  0.001380  ( 0.000805 -0.031044  0.020387)
 42:    785.75   0.002020   10.21  0.000802  (-0.019958  0.016048  0.012105)
 43:    817.86   0.007220   36.49  0.002755  ( 0.045638 -0.006303  0.025143)
 44:    830.47   0.004846   24.49  0.001821  ( 0.002726 -0.019216  0.038005)
 45:    847.71   0.000260    1.31  0.000096  (-0.001038 -0.001487  0.009615)
 46:    870.62   0.004859   24.55  0.001742  ( 0.004489  0.022556 -0.034824)
 47:    960.35   0.000467    2.36  0.000152  (-0.006873  0.004898 -0.008977)
 48:    966.50   0.000191    0.96  0.000062  ( 0.006378 -0.002840  0.003576)
 49:    982.99   0.000000    0.00  0.000000  ( 0.000333 -0.000019  0.000001)
 50:   1002.45   0.004572   23.10  0.001423  (-0.023734  0.008231 -0.028145)
 51:   1010.62   0.006150   31.08  0.001899  ( 0.027536  0.023754 -0.024008)
 52:   1027.38   0.009291   46.95  0.002822  (-0.053084 -0.001826  0.000979)
 53:   1031.14   0.010323   52.17  0.003124  ( 0.038765  0.040090 -0.003772)
 54:   1032.63   0.005112   25.83  0.001545  ( 0.009508  0.010792  0.036577)
 55:   1061.86   0.001989   10.05  0.000585  (-0.001453  0.010095 -0.021922)
 56:   1088.90   0.003154   15.94  0.000904  (-0.023031 -0.017346 -0.008515)
 57:   1096.01   0.002523   12.75  0.000718  (-0.009791  0.007424 -0.023819)
 58:   1103.14   0.011599   58.62  0.003281  ( 0.056314  0.008097  0.006656)
 59:   1135.16   0.000583    2.94  0.000160  ( 0.002251  0.012428  0.000824)
 60:   1139.68   0.002456   12.41  0.000673  (-0.011410 -0.006532 -0.022354)
 61:   1170.92   0.013777   69.62  0.003672  (-0.041910  0.023900 -0.036661)
 62:   1184.76   0.000956    4.83  0.000252  ( 0.009419 -0.004411  0.011986)
 63:   1208.19   0.000044    0.22  0.000011  ( 0.002174  0.000566  0.002533)
 64:   1218.81   0.009628   48.65  0.002465  (-0.004444 -0.018823 -0.045727)
 65:   1236.28   0.003731   18.86  0.000942  ( 0.025158  0.017361  0.002748)
 66:   1251.07   0.012578   63.56  0.003137  ( 0.036038  0.042142  0.007918)
 67:   1285.58   0.007241   36.59  0.001758  (-0.009136 -0.007228  0.040272)
 68:   1290.26   0.031495  159.16  0.007617  (-0.020553 -0.083340 -0.015790)
 69:   1333.08   0.000145    0.73  0.000034  ( 0.000926  0.005021  0.002813)
 70:   1335.37   0.001275    6.45  0.000298  (-0.010081 -0.013972 -0.001107)
 71:   1336.94   0.002304   11.64  0.000538  ( 0.016360  0.016092  0.003349)
 72:   1362.64   0.000472    2.38  0.000108  (-0.006526 -0.006856 -0.004289)
 73:   1372.75   0.000384    1.94  0.000087  (-0.006127  0.004985 -0.004990)
 74:   1406.58   0.012310   62.21  0.002731  (-0.050328 -0.005167  0.013096)
 75:   1415.91   0.007579   38.30  0.001670  (-0.027522 -0.028465 -0.010132)
 76:   1442.88   0.014701   74.29  0.003179  (-0.018103  0.022985 -0.048202)
 77:   1451.90   0.001675    8.47  0.000360  (-0.005008 -0.015622 -0.009538)
 78:   1457.98   0.016793   84.86  0.003594  (-0.004196  0.048389 -0.035145)
 79:   1475.75   0.046347  234.22  0.009801  (-0.067222 -0.068818 -0.023367)
 80:   1483.65   0.003352   16.94  0.000705  ( 0.023610 -0.011826 -0.002777)
 81:   1490.52   0.000742    3.75  0.000155  (-0.006438 -0.001638  0.010550)
 82:   1500.96   0.001597    8.07  0.000332  ( 0.004007 -0.001240  0.017734)
 83:   1505.43   0.003173   16.04  0.000658  (-0.005782  0.020083  0.014868)
 84:   1511.09   0.002746   13.88  0.000567  ( 0.008979  0.022006  0.001487)
 85:   1514.07   0.002575   13.01  0.000531  (-0.007017 -0.021915  0.001071)
 86:   1519.09   0.003966   20.04  0.000815  ( 0.025096 -0.013281 -0.002923)
 87:   1531.47   0.005905   29.84  0.001203  (-0.028492 -0.005311 -0.019059)
 88:   1534.74   0.006505   32.87  0.001323  (-0.011963  0.019373  0.028359)
 89:   1536.20   0.022611  114.27  0.004593  ( 0.066993  0.005492  0.008662)
 90:   1556.18   0.016445   83.11  0.003298  (-0.004208 -0.034396  0.045793)
 91:   1630.87   0.000337    1.70  0.000064  (-0.000414  0.007523  0.002773)
 92:   1651.33   0.000379    1.92  0.000072  ( 0.008307  0.000757  0.001428)
 93:   1706.05   0.187484  947.47  0.034294  ( 0.151314  0.037773  0.099855)
 94:   1711.48   0.047318  239.13  0.008628  (-0.083707 -0.000435  0.040258)
 95:   3034.57   0.004858   24.55  0.000500  (-0.015464 -0.015506 -0.004472)
 96:   3039.21   0.018043   91.18  0.001853  (-0.001698 -0.004868  0.042733)
 97:   3065.79   0.000657    3.32  0.000067  (-0.006489  0.004969  0.000235)
 98:   3076.37   0.003614   18.27  0.000367  (-0.010098 -0.008548 -0.013842)
 99:   3084.93   0.004096   20.70  0.000414  (-0.003419  0.009383  0.017738)
100:   3089.99   0.011472   57.98  0.001159  ( 0.020025 -0.003240  0.027333)
101:   3097.34   0.010629   53.71  0.001071  ( 0.025752 -0.020159  0.001154)
102:   3104.11   0.006564   33.17  0.000660  ( 0.019202 -0.016997  0.001517)
103:   3121.63   0.000798    4.03  0.000080  ( 0.004990 -0.007368  0.000788)
104:   3132.14   0.001923    9.72  0.000192  ( 0.001376  0.003128 -0.013412)
105:   3142.21   0.007439   37.59  0.000739  (-0.000426  0.026674  0.005203)
106:   3167.71   0.001465    7.40  0.000144  (-0.000519  0.011045 -0.004697)
107:   3172.17   0.002748   13.89  0.000270  (-0.014343 -0.007449 -0.003020)
108:   3191.45   0.000374    1.89  0.000037  (-0.003584  0.004624  0.001532)
109:   3193.34   0.002752   13.91  0.000269  ( 0.008972  0.011595  0.007347)
110:   3194.11   0.001065    5.38  0.000104  (-0.000565 -0.009657 -0.003238)
111:   3195.32   0.000435    2.20  0.000042  (-0.006358  0.000330 -0.001390)
112:   3223.83   0.001273    6.43  0.000123  (-0.001688  0.009623  0.005272)
113:   3224.76   0.000324    1.64  0.000031  ( 0.005416  0.001340  0.000478)

--------------------------
THERMOCHEMISTRY AT 298.15K
--------------------------

Temperature         ... 298.15 K
Pressure            ... 1.00 atm
Total Mass          ... 282.77 AMU

Throughout the following assumptions are being made:
  (1) The electronic state is orbitally nondegenerate
  (2) There are no thermally accessible electronically excited states
  (3) Hindered rotations indicated by low frequency modes are not
      treated as such but are treated as vibrations and this may
      cause some error
  (4) All equations used are the standard statistical mechanics
      equations for an ideal gas
  (5) All vibrations are strictly harmonic

freq.      20.60  E(vib)   ...       0.56
freq.      33.43  E(vib)   ...       0.55
freq.      38.49  E(vib)   ...       0.54
freq.      53.95  E(vib)   ...       0.52
freq.      67.44  E(vib)   ...       0.50
freq.      79.35  E(vib)   ...       0.49
freq.      81.71  E(vib)   ...       0.48
freq.     104.76  E(vib)   ...       0.46
freq.     113.84  E(vib)   ...       0.44
freq.     125.53  E(vib)   ...       0.43
freq.     148.29  E(vib)   ...       0.41
freq.     160.66  E(vib)   ...       0.39
freq.     165.92  E(vib)   ...       0.39
freq.     219.25  E(vib)   ...       0.33
freq.     249.32  E(vib)   ...       0.31
freq.     260.72  E(vib)   ...       0.30
freq.     275.17  E(vib)   ...       0.28
freq.     320.73  E(vib)   ...       0.25
freq.     342.20  E(vib)   ...       0.23
freq.     368.13  E(vib)   ...       0.21
freq.     380.91  E(vib)   ...       0.21
freq.     391.75  E(vib)   ...       0.20
freq.     420.97  E(vib)   ...       0.18
freq.     426.12  E(vib)   ...       0.18
freq.     436.34  E(vib)   ...       0.17
freq.     464.43  E(vib)   ...       0.16
freq.     493.67  E(vib)   ...       0.14
freq.     524.81  E(vib)   ...       0.13
freq.     580.23  E(vib)   ...       0.11
freq.     598.62  E(vib)   ...       0.10
freq.     620.24  E(vib)   ...       0.09
freq.     645.66  E(vib)   ...       0.09
freq.     667.32  E(vib)   ...       0.08
freq.     700.78  E(vib)   ...       0.07
freq.     728.04  E(vib)   ...       0.06
freq.     765.07  E(vib)   ...       0.06
freq.     785.75  E(vib)   ...       0.05
freq.     817.86  E(vib)   ...       0.05
freq.     830.47  E(vib)   ...       0.04
freq.     847.71  E(vib)   ...       0.04
freq.     870.62  E(vib)   ...       0.04
freq.     960.35  E(vib)   ...       0.03
freq.     966.50  E(vib)   ...       0.03
freq.     982.99  E(vib)   ...       0.02
freq.    1002.45  E(vib)   ...       0.02
freq.    1010.62  E(vib)   ...       0.02
freq.    1027.38  E(vib)   ...       0.02
freq.    1031.14  E(vib)   ...       0.02
freq.    1032.63  E(vib)   ...       0.02
freq.    1061.86  E(vib)   ...       0.02
freq.    1088.90  E(vib)   ...       0.02
freq.    1096.01  E(vib)   ...       0.02
freq.    1103.14  E(vib)   ...       0.02
freq.    1135.16  E(vib)   ...       0.01
freq.    1139.68  E(vib)   ...       0.01
freq.    1170.92  E(vib)   ...       0.01
freq.    1184.76  E(vib)   ...       0.01
freq.    1208.19  E(vib)   ...       0.01
freq.    1218.81  E(vib)   ...       0.01
freq.    1236.28  E(vib)   ...       0.01
freq.    1251.07  E(vib)   ...       0.01
freq.    1285.58  E(vib)   ...       0.01
freq.    1290.26  E(vib)   ...       0.01
freq.    1333.08  E(vib)   ...       0.01
freq.    1335.37  E(vib)   ...       0.01
freq.    1336.94  E(vib)   ...       0.01
freq.    1362.64  E(vib)   ...       0.01
freq.    1372.75  E(vib)   ...       0.01
freq.    1406.58  E(vib)   ...       0.00
freq.    1415.91  E(vib)   ...       0.00
freq.    1442.88  E(vib)   ...       0.00
freq.    1451.90  E(vib)   ...       0.00
freq.    1457.98  E(vib)   ...       0.00
freq.    1475.75  E(vib)   ...       0.00
freq.    1483.65  E(vib)   ...       0.00
freq.    1490.52  E(vib)   ...       0.00
freq.    1500.96  E(vib)   ...       0.00
freq.    1505.43  E(vib)   ...       0.00
freq.    1511.09  E(vib)   ...       0.00
freq.    1514.07  E(vib)   ...       0.00
freq.    1519.09  E(vib)   ...       0.00
freq.    1531.47  E(vib)   ...       0.00
freq.    1534.74  E(vib)   ...       0.00
freq.    1536.20  E(vib)   ...       0.00
freq.    1556.18  E(vib)   ...       0.00
freq.    1630.87  E(vib)   ...       0.00
freq.    1651.33  E(vib)   ...       0.00
freq.    1706.05  E(vib)   ...       0.00
freq.    1711.48  E(vib)   ...       0.00
freq.    3034.57  E(vib)   ...       0.00
freq.    3039.21  E(vib)   ...       0.00
freq.    3065.79  E(vib)   ...       0.00
freq.    3076.37  E(vib)   ...       0.00
freq.    3084.93  E(vib)   ...       0.00
freq.    3089.99  E(vib)   ...       0.00
freq.    3097.34  E(vib)   ...       0.00
freq.    3104.11  E(vib)   ...       0.00
freq.    3121.63  E(vib)   ...       0.00
freq.    3132.14  E(vib)   ...       0.00
freq.    3142.21  E(vib)   ...       0.00
freq.    3167.71  E(vib)   ...       0.00
freq.    3172.17  E(vib)   ...       0.00
freq.    3191.45  E(vib)   ...       0.00
freq.    3193.34  E(vib)   ...       0.00
freq.    3194.11  E(vib)   ...       0.00
freq.    3195.32  E(vib)   ...       0.00
freq.    3223.83  E(vib)   ...       0.00
freq.    3224.76  E(vib)   ...       0.00

------------
INNER ENERGY
------------

The inner energy is: U= E(el) + E(ZPE) + E(vib) + E(rot) + E(trans)
    E(el)   - is the total energy from the electronic structure calculation
              = E(kin-el) + E(nuc-el) + E(el-el) + E(nuc-nuc)
    E(ZPE)  - the the zero temperature vibrational energy from the frequency calculation
    E(vib)  - the the finite temperature correction to E(ZPE) due to population
              of excited vibrational states
    E(rot)  - is the rotational thermal energy
    E(trans)- is the translational thermal energy

Summary of contributions to the inner energy U:
Electronic energy                ...  -1264.62388704 Eh
Zero point energy                ...      0.31675063 Eh     198.76 kcal/mol
Thermal vibrational correction   ...      0.01714456 Eh      10.76 kcal/mol
Thermal rotational correction    ...      0.00141627 Eh       0.89 kcal/mol
Thermal translational correction ...      0.00141627 Eh       0.89 kcal/mol
-----------------------------------------------------------------------
Total thermal energy                  -1264.28715930 Eh

Summary of corrections to the electronic energy:
(perhaps to be used in another calculation)
Total thermal correction                  0.01997711 Eh      12.54 kcal/mol
Non-thermal (ZPE) correction              0.31675063 Eh     198.76 kcal/mol
-----------------------------------------------------------------------
Total correction                          0.33672774 Eh     211.30 kcal/mol

--------
ENTHALPY
--------

Rotational constants in cm-1:     0.019552     0.005285     0.004550

                             ****ORCA TERMINATED NORMALLY****
TOTAL RUN TIME: 0 days 0 hours 43 minutes 1 seconds 873 msec
