                         Program Version 5.0.4 -  RELEASE  -
|  1> ! OPT FREQ B3LYP 6-31G(d) D4 AUTOAUX CPCM(water)
|  2>
|  3> %PAL NPROCS 4 END
|  4>
|  5> %maxcore 3375
|  6>
|  7> *xyzfile 0 1 /users/fjb15167/WWenergy/structures/Nfer.xyz
|  8>
|  9>                          ****END OF INPUT****
 Total Charge           Charge          ....    0
 Multiplicity           Mult            ....    1
 Number of Electrons    NEL             ....  134
Dispersion correction           -0.076852284
FINAL SINGLE POINT ENERGY      -805.084431425605
Dispersion correction            ... Starting D4
Dispersion correction           -0.076057841
FINAL SINGLE POINT ENERGY      -805.084896734003
Dispersion correction            ... Starting D4
Dispersion correction           -0.076565710
FINAL SINGLE POINT ENERGY      -805.084914415941
Dispersion correction            ... Starting D4
FINAL SINGLE POINT ENERGY      -805.085116656698
FINAL SINGLE POINT ENERGY      -805.085108843693
FINAL SINGLE POINT ENERGY      -805.085150225481
FINAL SINGLE POINT ENERGY      -805.085154555361
Dispersion correction           -0.076455236
FINAL SINGLE POINT ENERGY      -805.085158778375
Dispersion correction            ... Starting D4
Dispersion correction           -0.076459648
FINAL SINGLE POINT ENERGY      -805.085158645522
Dispersion correction            ... Starting D4
                    ***********************HURRAY********************

CARTESIAN COORDINATES (ANGSTROEM)
---------------------------------
  C     -2.762820   -1.365259   -0.961028
  H     -3.228781   -1.405578    0.026403
  H     -3.224770   -2.107701   -1.614577
  H     -2.953346   -0.372203   -1.383359
  C     -1.272532   -1.651533   -0.934041
  N     -0.521449   -1.132280    0.091281
  C      0.864788   -1.653183    0.257052
  H      0.988970   -2.327110   -0.590120
  C      1.890302   -0.543005    0.104471
  C      2.271602   -0.163009   -1.190965
  C      2.433596    0.147689    1.194505
  C      3.156474    0.894174   -1.395860
  H      1.853648   -0.695271   -2.042042
  C      3.319198    1.211417    0.992871
  H      2.171682   -0.137702    2.209150
  C      3.679997    1.589981   -0.300793
  H      3.439606    1.174907   -2.407085
  H      3.727096    1.740749    1.850116
  H      4.368829    2.416038   -0.456821
  C     -1.074557   -0.359518    1.205912
  H     -1.584208   -1.007959    1.925330
  H     -0.227754    0.098974    1.727526
  C     -2.088089    0.755939    0.896858
  N     -1.775599    1.708020   -0.016863
  O     -3.158563    0.753142    1.519118
  O     -0.762282   -2.334664   -1.830639
  C     -0.485556    1.837023   -0.683555
  H     -0.495383    1.370881   -1.676625
  H     -0.263435    2.902615   -0.801240
  H      0.307118    1.390239   -0.090732
  C     -2.785041    2.688052   -0.404268
  H     -2.484358    3.693959   -0.086192
  H     -2.898502    2.686795   -1.494937
  H     -3.732426    2.427777    0.064596
  C      0.991721   -2.480170    1.540793
  H      0.263897   -3.298511    1.526794
  H      1.997143   -2.910300    1.602533
  H      0.822783   -1.892415    2.448432

 Multiplicity           Mult            ....    1
 Number of Electrons    NEL             ....  134
 Basis Dimension        Dim             ....  292

ORBITAL ENERGIES
----------------

  NO   OCC          E(Eh)            E(eV)
   0   2.0000     -19.107456      -519.9403
   1   2.0000     -19.107158      -519.9322
   2   2.0000     -14.359973      -390.7547
   3   2.0000     -14.358356      -390.7107
   4   2.0000     -10.282988      -279.8143
   5   2.0000     -10.282724      -279.8072
   6   2.0000     -10.218608      -278.0625
   7   2.0000     -10.214978      -277.9637
   8   2.0000     -10.198587      -277.5177
   9   2.0000     -10.196490      -277.4606
  10   2.0000     -10.187475      -277.2153
  11   2.0000     -10.180733      -277.0318
  12   2.0000     -10.180411      -277.0231
  13   2.0000     -10.179984      -277.0114
  14   2.0000     -10.179856      -277.0080
  15   2.0000     -10.178180      -276.9624
  16   2.0000     -10.170415      -276.7510
  17   2.0000     -10.164789      -276.5980
  18   2.0000      -1.031313       -28.0635
  19   2.0000      -1.025810       -27.9137
  20   2.0000      -0.934255       -25.4224
  21   2.0000      -0.925502       -25.1842
  22   2.0000      -0.851265       -23.1641
  23   2.0000      -0.783825       -21.3290
  24   2.0000      -0.742344       -20.2002
  25   2.0000      -0.739213       -20.1150
  26   2.0000      -0.731346       -19.9009
  27   2.0000      -0.712112       -19.3776
  28   2.0000      -0.710112       -19.3231
  29   2.0000      -0.680395       -18.5145
  30   2.0000      -0.634466       -17.2647
  31   2.0000      -0.599458       -16.3121
  32   2.0000      -0.582522       -15.8512
  33   2.0000      -0.558941       -15.2096
  34   2.0000      -0.534395       -14.5416
  35   2.0000      -0.514355       -13.9963
  36   2.0000      -0.491836       -13.3835
  37   2.0000      -0.480221       -13.0675
  38   2.0000      -0.478412       -13.0182
  39   2.0000      -0.462993       -12.5987
  40   2.0000      -0.456372       -12.4185
  41   2.0000      -0.452940       -12.3251
  42   2.0000      -0.446894       -12.1606
  43   2.0000      -0.440556       -11.9881
  44   2.0000      -0.423482       -11.5235
  45   2.0000      -0.415357       -11.3024
  46   2.0000      -0.412549       -11.2260
  47   2.0000      -0.405783       -11.0419
  48   2.0000      -0.401230       -10.9180
  49   2.0000      -0.397864       -10.8264
  50   2.0000      -0.395739       -10.7686
  51   2.0000      -0.390391       -10.6231
  52   2.0000      -0.380182       -10.3453
  53   2.0000      -0.375593       -10.2204
  54   2.0000      -0.371785       -10.1168
  55   2.0000      -0.360817        -9.8183
  56   2.0000      -0.354386        -9.6433
  57   2.0000      -0.352299        -9.5866
  58   2.0000      -0.347624        -9.4593
  59   2.0000      -0.331618        -9.0238
  60   2.0000      -0.329022        -8.9532
  61   2.0000      -0.256517        -6.9802
  62   2.0000      -0.253747        -6.9048
  63   2.0000      -0.249148        -6.7797
  64   2.0000      -0.242781        -6.6064
  65   2.0000      -0.237937        -6.4746
  66   2.0000      -0.233773        -6.3613
  67   0.0000      -0.004278        -0.1164
  68   0.0000      -0.001130        -0.0308
  69   0.0000       0.019042         0.5182
  70   0.0000       0.025716         0.6998
  71   0.0000       0.088240         2.4011

MULLIKEN ATOMIC CHARGES
-----------------------
   0 C :   -0.570305
   1 H :    0.189091
   2 H :    0.181725
   3 H :    0.201868
   4 C :    0.537407
   5 N :   -0.381213
   6 C :   -0.075625
   7 H :    0.181795
   8 C :    0.147266
   9 C :   -0.187392
  10 C :   -0.201015
  11 C :   -0.148242
  12 H :    0.150416
  13 C :   -0.150637
  14 H :    0.157537
  15 C :   -0.147531
  16 H :    0.153583
  17 H :    0.153887
  18 H :    0.153158
  19 C :   -0.260218
  20 H :    0.190433
  21 H :    0.206715
  22 C :    0.520774
  23 N :   -0.356104
  24 O :   -0.546787
  25 O :   -0.539553
  26 C :   -0.337581
  27 H :    0.174780
  28 H :    0.176615
  29 H :    0.192973
  30 C :   -0.332517
  31 H :    0.174676
  32 H :    0.175021
  33 H :    0.184987
  34 C :   -0.468265
  35 H :    0.163394
  36 H :    0.166353
  37 H :    0.168532
Sum of atomic charges:   -0.0000000

LOEWDIN ATOMIC CHARGES
----------------------
   0 C :   -0.397752
   1 H :    0.150609
   2 H :    0.151364
   3 H :    0.161178
   4 C :    0.116991
   5 N :   -0.073921
   6 C :   -0.056297
   7 H :    0.153039
   8 C :   -0.033390
   9 C :   -0.131206
  10 C :   -0.145713
  11 C :   -0.135359
  12 H :    0.140533
  13 C :   -0.135282
  14 H :    0.142880
  15 C :   -0.136776
  16 H :    0.141813
  17 H :    0.141790
  18 H :    0.141595
  19 C :   -0.181639
  20 H :    0.147597
  21 H :    0.162007
  22 C :    0.096989
  23 N :   -0.067065
  24 O :   -0.341047
  25 O :   -0.338117
  26 C :   -0.280071
  27 H :    0.133919
  28 H :    0.140301
  29 H :    0.148993
  30 C :   -0.278938
  31 H :    0.135612
  32 H :    0.136444
  33 H :    0.147413
  34 C :   -0.368335
  35 H :    0.136622
  36 H :    0.139641
  37 H :    0.133578

  Mayer bond orders larger than 0.100000
B(  0-C ,  1-H ) :   0.9153 B(  0-C ,  2-H ) :   0.9357 B(  0-C ,  3-H ) :   0.9173
B(  0-C ,  4-C ) :   0.9947 B(  4-C ,  5-N ) :   1.1509 B(  4-C , 25-O ) :   1.7652
B(  5-N ,  6-C ) :   0.9150 B(  5-N , 19-C ) :   0.9193 B(  6-C ,  7-H ) :   0.8930
B(  6-C ,  8-C ) :   0.9693 B(  6-C , 34-C ) :   1.0048 B(  8-C ,  9-C ) :   1.4156
B(  8-C , 10-C ) :   1.4208 B(  9-C , 11-C ) :   1.4449 B(  9-C , 12-H ) :   0.9173
B( 10-C , 13-C ) :   1.4218 B( 10-C , 14-H ) :   0.9146 B( 11-C , 15-C ) :   1.4347
B( 11-C , 16-H ) :   0.9255 B( 13-C , 15-C ) :   1.4579 B( 13-C , 17-H ) :   0.9257
B( 15-C , 18-H ) :   0.9263 B( 19-C , 20-H ) :   0.9118 B( 19-C , 21-H ) :   0.8967
B( 19-C , 22-C ) :   0.9450 B( 22-C , 23-N ) :   1.2064 B( 22-C , 24-O ) :   1.7406
B( 23-N , 26-C ) :   0.9438 B( 23-N , 30-C ) :   0.9437 B( 26-C , 27-H ) :   0.9302
B( 26-C , 28-H ) :   0.9346 B( 26-C , 29-H ) :   0.9162 B( 30-C , 31-H ) :   0.9361
B( 30-C , 32-H ) :   0.9362 B( 30-C , 33-H ) :   0.9257 B( 34-C , 35-H ) :   0.9423
B( 34-C , 36-H ) :   0.9413 B( 34-C , 37-H ) :   0.9303

Dispersion correction           -0.076476277
FINAL SINGLE POINT ENERGY      -805.085158493156

DIPOLE MOMENT
-------------
                                X             Y             Z
Electronic contribution:      2.53923      -2.22912      -0.32275
Nuclear contribution   :     -1.27978       3.68911       0.63677
                        -----------------------------------------
Total Dipole Moment    :      1.25946       1.45999       0.31402
                        -----------------------------------------
Magnitude (a.u.)       :      1.95356
Magnitude (Debye)      :      4.96555

Dispersion correction in the Hessian             ... Starting D4

VIBRATIONAL FREQUENCIES
-----------------------

Scaling factor for frequencies =  1.000000000  (already applied!)

   0:         0.00 cm**-1
   1:         0.00 cm**-1
   2:         0.00 cm**-1
   3:         0.00 cm**-1
   4:         0.00 cm**-1
   5:         0.00 cm**-1
   6:        24.70 cm**-1
   7:        48.82 cm**-1
   8:        52.99 cm**-1
   9:        65.48 cm**-1
  10:        68.22 cm**-1
  11:        89.41 cm**-1
  12:        97.88 cm**-1
  13:       115.56 cm**-1
  14:       153.43 cm**-1
  15:       168.87 cm**-1
  16:       190.35 cm**-1
  17:       201.09 cm**-1
  18:       208.96 cm**-1
  19:       234.27 cm**-1
  20:       246.26 cm**-1
  21:       267.42 cm**-1
  22:       273.98 cm**-1
  23:       313.40 cm**-1
  24:       323.74 cm**-1
  25:       355.76 cm**-1
  26:       404.28 cm**-1
  27:       417.33 cm**-1
  28:       441.18 cm**-1
  29:       456.76 cm**-1
  30:       516.79 cm**-1
  31:       553.58 cm**-1
  32:       580.14 cm**-1
  33:       595.16 cm**-1
  34:       614.63 cm**-1
  35:       630.65 cm**-1
  36:       636.61 cm**-1
  37:       681.95 cm**-1
  38:       717.78 cm**-1
  39:       756.62 cm**-1
  40:       777.79 cm**-1
  41:       796.47 cm**-1
  42:       820.35 cm**-1
  43:       867.47 cm**-1
  44:       927.06 cm**-1
  45:       938.13 cm**-1
  46:       981.57 cm**-1
  47:       998.54 cm**-1
  48:      1005.44 cm**-1
  49:      1009.40 cm**-1
  50:      1015.57 cm**-1
  51:      1020.29 cm**-1
  52:      1056.24 cm**-1
  53:      1060.62 cm**-1
  54:      1064.53 cm**-1
  55:      1086.17 cm**-1
  56:      1088.35 cm**-1
  57:      1100.05 cm**-1
  58:      1135.50 cm**-1
  59:      1147.35 cm**-1
  60:      1177.99 cm**-1
  61:      1184.03 cm**-1
  62:      1196.01 cm**-1
  63:      1200.10 cm**-1
  64:      1212.68 cm**-1
  65:      1241.97 cm**-1
  66:      1291.46 cm**-1
  67:      1305.59 cm**-1
  68:      1331.42 cm**-1
  69:      1336.33 cm**-1
  70:      1367.26 cm**-1
  71:      1386.20 cm**-1
  72:      1407.67 cm**-1
  73:      1415.73 cm**-1
  74:      1431.71 cm**-1
  75:      1440.61 cm**-1
  76:      1453.80 cm**-1
  77:      1462.36 cm**-1
  78:      1484.77 cm**-1
  79:      1493.65 cm**-1
  80:      1499.45 cm**-1
  81:      1503.04 cm**-1
  82:      1507.13 cm**-1
  83:      1508.07 cm**-1
  84:      1509.68 cm**-1
  85:      1514.13 cm**-1
  86:      1521.48 cm**-1
  87:      1523.49 cm**-1
  88:      1545.53 cm**-1
  89:      1553.31 cm**-1
  90:      1640.94 cm**-1
  91:      1660.95 cm**-1
  92:      1703.02 cm**-1
  93:      1710.79 cm**-1
  94:      3045.14 cm**-1
  95:      3052.25 cm**-1
  96:      3057.95 cm**-1
  97:      3070.70 cm**-1
  98:      3072.10 cm**-1
  99:      3099.00 cm**-1
 100:      3111.21 cm**-1
 101:      3116.14 cm**-1
 102:      3124.89 cm**-1
 103:      3128.19 cm**-1
 104:      3141.63 cm**-1
 105:      3146.49 cm**-1
 106:      3168.89 cm**-1
 107:      3185.37 cm**-1
 108:      3191.47 cm**-1
 109:      3194.62 cm**-1
 110:      3199.61 cm**-1
 111:      3207.64 cm**-1
 112:      3214.60 cm**-1
 113:      3223.38 cm**-1

IR SPECTRUM
-----------

 Mode   freq       eps      Int      T**2         TX        TY        TZ
       cm**-1   L/(mol*cm) km/mol    a.u.
----------------------------------------------------------------------------
  6:     24.70   0.000450    2.28  0.005690  ( 0.033516  0.028423 -0.061312)
  7:     48.82   0.000884    4.47  0.005653  (-0.038448 -0.056444 -0.031445)
  8:     52.99   0.000043    0.22  0.000252  ( 0.011480 -0.009379 -0.005679)
  9:     65.48   0.000696    3.52  0.003316  (-0.007969 -0.057023  0.001162)
 10:     68.22   0.001118    5.65  0.005115  (-0.021156  0.052090 -0.044207)
 11:     89.41   0.000379    1.91  0.001322  (-0.012763  0.016412 -0.029828)
 12:     97.88   0.000691    3.49  0.002204  (-0.011914 -0.042146  0.016906)
 13:    115.56   0.000369    1.86  0.000996  ( 0.012271 -0.009405 -0.027517)
 14:    153.43   0.000986    4.98  0.002006  ( 0.011508  0.043181  0.002955)
 15:    168.87   0.000972    4.91  0.001797  ( 0.036066  0.018428  0.012516)
 16:    190.35   0.000359    1.81  0.000589  (-0.006986  0.017741 -0.015000)
 17:    201.09   0.001005    5.08  0.001559  ( 0.033135  0.016350  0.013936)
 18:    208.96   0.000153    0.77  0.000228  (-0.009896 -0.007467 -0.008643)
 19:    234.27   0.000181    0.92  0.000241  ( 0.011084 -0.008810 -0.006395)
 20:    246.26   0.002344   11.85  0.002970  ( 0.021103  0.036667  0.034357)
 21:    267.42   0.000334    1.69  0.000390  (-0.014086  0.007653 -0.011531)
 22:    273.98   0.000295    1.49  0.000336  ( 0.013904 -0.007506  0.009278)
 23:    313.40   0.001839    9.29  0.001831  (-0.014433 -0.031773  0.024759)
 24:    323.74   0.000146    0.74  0.000141  (-0.001062  0.005310  0.010566)
 25:    355.76   0.000889    4.49  0.000780  ( 0.008807  0.025245  0.008064)
 26:    404.28   0.001698    8.58  0.001311  (-0.011315  0.024406 -0.024235)
 27:    417.33   0.000119    0.60  0.000089  (-0.004519 -0.008249  0.000844)
 28:    441.18   0.001142    5.77  0.000808  ( 0.006624  0.027508  0.002688)
 29:    456.76   0.002718   13.73  0.001857  (-0.033224  0.023259 -0.014557)
 30:    516.79   0.001573    7.95  0.000950  ( 0.015697  0.024744  0.009561)
 31:    553.58   0.007532   38.06  0.004246  ( 0.051042 -0.022176  0.033893)
 32:    580.14   0.004761   24.06  0.002561  (-0.020431  0.026171  0.038195)
 33:    595.16   0.001329    6.72  0.000697  ( 0.010850 -0.023990 -0.001899)
 34:    614.63   0.008656   43.74  0.004395  ( 0.023142  0.061465 -0.009007)
 35:    630.65   0.000075    0.38  0.000037  (-0.002640  0.001188 -0.005383)
 36:    636.61   0.000268    1.36  0.000132  (-0.001275  0.011172 -0.002262)
 37:    681.95   0.002724   13.77  0.001247  ( 0.030641  0.017038 -0.004177)
 38:    717.78   0.011233   56.77  0.004884  ( 0.053036 -0.045372  0.003508)
 39:    756.62   0.003945   19.94  0.001627  (-0.023367 -0.032806  0.002218)
 40:    777.79   0.004678   23.64  0.001877  (-0.014512  0.040801 -0.001269)
 41:    796.47   0.000156    0.79  0.000061  ( 0.003980 -0.006725  0.000157)
 42:    820.35   0.005722   28.92  0.002177  (-0.044265 -0.006439  0.013264)
 43:    867.47   0.000008    0.04  0.000003  (-0.000418 -0.000947 -0.001300)
 44:    927.06   0.000429    2.17  0.000145  (-0.011395  0.003829 -0.000220)
 45:    938.13   0.002170   10.97  0.000722  (-0.022526  0.014221  0.003505)
 46:    981.57   0.000013    0.07  0.000004  (-0.001936 -0.000639  0.000272)
 47:    998.54   0.005015   25.34  0.001567  ( 0.019123  0.034256 -0.005297)
 48:   1005.44   0.000613    3.10  0.000190  (-0.007942  0.008861 -0.006970)
 49:   1009.40   0.008902   44.99  0.002752  (-0.008491  0.018739 -0.048259)
 50:   1015.57   0.000214    1.08  0.000066  ( 0.004677 -0.006550 -0.001042)
 51:   1020.29   0.002288   11.56  0.000700  (-0.002566 -0.022785  0.013196)
 52:   1056.24   0.002758   13.94  0.000815  ( 0.024305  0.014575  0.003418)
 53:   1060.62   0.004115   20.79  0.001211  (-0.003872 -0.034508  0.002206)
 54:   1064.53   0.000977    4.94  0.000286  (-0.003694  0.001861 -0.016408)
 55:   1086.17   0.006547   33.08  0.001881  (-0.031642 -0.020460 -0.021472)
 56:   1088.35   0.001797    9.08  0.000515  (-0.017951  0.008822  0.010739)
 57:   1100.05   0.001485    7.50  0.000421  (-0.005107  0.006692 -0.018719)
 58:   1135.50   0.000682    3.45  0.000187  (-0.010415 -0.002801  0.008432)
 59:   1147.35   0.003015   15.24  0.000820  ( 0.020711 -0.016853 -0.010349)
 60:   1177.99   0.001656    8.37  0.000439  ( 0.015217  0.012591 -0.006975)
 61:   1184.03   0.000033    0.17  0.000009  ( 0.001067 -0.001265 -0.002427)
 62:   1196.01   0.018434   93.16  0.004810  ( 0.019694  0.051293 -0.042318)
 63:   1200.10   0.025527  129.00  0.006638  ( 0.077879 -0.008444  0.022390)
 64:   1212.68   0.000806    4.08  0.000208  ( 0.014067 -0.001203  0.002864)
 65:   1241.97   0.010436   52.74  0.002622  ( 0.044851  0.022870  0.009350)
 66:   1291.46   0.010373   52.42  0.002507  (-0.012734  0.048253 -0.004003)
 67:   1305.59   0.004868   24.60  0.001164  ( 0.032849 -0.009170  0.000702)
 68:   1331.42   0.045917  232.05  0.010762  (-0.043951 -0.032724 -0.088089)
 69:   1336.33   0.006771   34.22  0.001581  (-0.025872 -0.022319 -0.020339)
 70:   1367.26   0.000036    0.18  0.000008  (-0.000857  0.002144 -0.001727)
 71:   1386.20   0.004174   21.10  0.000940  (-0.013630  0.006210  0.026747)
 72:   1407.67   0.001374    6.94  0.000305  (-0.013341 -0.011231  0.000680)
 73:   1415.73   0.003844   19.42  0.000847  ( 0.024664 -0.012264  0.009406)
 74:   1431.71   0.001626    8.21  0.000354  ( 0.008280  0.016755  0.002241)
 75:   1440.61   0.017229   87.07  0.003732  ( 0.015403  0.046014 -0.037117)
 76:   1453.80   0.029082  146.97  0.006243  ( 0.045485 -0.007100  0.064212)
 77:   1462.36   0.021550  108.91  0.004599  ( 0.024561  0.059352  0.021745)
 78:   1484.77   0.004249   21.47  0.000893  (-0.026638 -0.009081 -0.010047)
 79:   1493.65   0.003978   20.10  0.000831  (-0.021166  0.014705  0.012919)
 80:   1499.45   0.001337    6.76  0.000278  ( 0.008406 -0.001589 -0.014322)
 81:   1503.04   0.003310   16.73  0.000687  (-0.013486  0.018212 -0.013179)
 82:   1507.13   0.007017   35.46  0.001453  ( 0.025937  0.027736 -0.003302)
 83:   1508.07   0.003529   17.83  0.000730  (-0.008110 -0.009703 -0.023881)
 84:   1509.68   0.003196   16.15  0.000661  (-0.022322  0.008127 -0.009819)
 85:   1514.13   0.005449   27.54  0.001123  (-0.000052 -0.021811 -0.025444)
 86:   1521.48   0.005954   30.09  0.001221  (-0.028355  0.002120 -0.020316)
 87:   1523.49   0.003812   19.27  0.000781  (-0.005990 -0.003432 -0.027079)
 88:   1545.53   0.003381   17.08  0.000683  (-0.014916 -0.021396 -0.001526)
 89:   1553.31   0.016386   82.81  0.003292  (-0.017258  0.048576 -0.025190)
 90:   1640.94   0.001095    5.53  0.000208  ( 0.001504 -0.009664 -0.010609)
 91:   1660.95   0.000727    3.67  0.000137  ( 0.008157  0.007503  0.003698)
 92:   1703.02   0.124272  628.02  0.022772  (-0.038272  0.071794  0.127093)
 93:   1710.79   0.105126  531.27  0.019176  (-0.101098 -0.063135  0.070492)
 94:   3045.14   0.008280   41.84  0.000849  ( 0.016103 -0.024110  0.002821)
 95:   3052.25   0.013596   68.71  0.001390  (-0.010993 -0.018116  0.030676)
 96:   3057.95   0.003769   19.05  0.000385  ( 0.003937 -0.012721  0.014398)
 97:   3070.70   0.001115    5.63  0.000113  ( 0.009785  0.000533 -0.004152)
 98:   3072.10   0.006187   31.27  0.000628  (-0.006966 -0.002499  0.023952)
 99:   3099.00   0.009974   50.40  0.001004  (-0.007670 -0.020670 -0.022766)
100:   3111.21   0.005365   27.11  0.000538  ( 0.002069  0.022596  0.004828)
101:   3116.14   0.002089   10.56  0.000209  ( 0.006219  0.009359 -0.009109)
102:   3124.89   0.007097   35.87  0.000709  ( 0.008362  0.019961  0.015505)
103:   3128.19   0.006634   33.53  0.000662  ( 0.025210  0.004444 -0.002556)
104:   3141.63   0.002023   10.23  0.000201  (-0.007759 -0.011243  0.003792)
105:   3146.49   0.004107   20.75  0.000407  ( 0.016406 -0.011420 -0.002779)
106:   3168.89   0.002217   11.20  0.000218  ( 0.002309  0.007874  0.012288)
107:   3185.37   0.000537    2.72  0.000053  ( 0.004666  0.005519  0.000642)
108:   3191.47   0.000250    1.27  0.000024  ( 0.000833  0.003594 -0.003299)
109:   3194.62   0.000943    4.76  0.000092  (-0.009461  0.000365  0.001565)
110:   3199.61   0.005682   28.71  0.000554  (-0.011345 -0.014924 -0.014238)
111:   3207.64   0.009410   47.55  0.000915  ( 0.010101  0.008194 -0.027318)
112:   3214.60   0.003183   16.09  0.000309  ( 0.011451  0.011544  0.006682)
113:   3223.38   0.000767    3.88  0.000074  ( 0.001693  0.000605 -0.008427)

--------------------------
THERMOCHEMISTRY AT 298.15K
--------------------------

Temperature         ... 298.15 K
Pressure            ... 1.00 atm
Total Mass          ... 248.33 AMU

Throughout the following assumptions are being made:
  (1) The electronic state is orbitally nondegenerate
  (2) There are no thermally accessible electronically excited states
  (3) Hindered rotations indicated by low frequency modes are not
      treated as such but are treated as vibrations and this may
      cause some error
  (4) All equations used are the standard statistical mechanics
      equations for an ideal gas
  (5) All vibrations are strictly harmonic

freq.      24.70  E(vib)   ...       0.56
freq.      48.82  E(vib)   ...       0.53
freq.      52.99  E(vib)   ...       0.52
freq.      65.48  E(vib)   ...       0.50
freq.      68.22  E(vib)   ...       0.50
freq.      89.41  E(vib)   ...       0.47
freq.      97.88  E(vib)   ...       0.46
freq.     115.56  E(vib)   ...       0.44
freq.     153.43  E(vib)   ...       0.40
freq.     168.87  E(vib)   ...       0.38
freq.     190.35  E(vib)   ...       0.36
freq.     201.09  E(vib)   ...       0.35
freq.     208.96  E(vib)   ...       0.34
freq.     234.27  E(vib)   ...       0.32
freq.     246.26  E(vib)   ...       0.31
freq.     267.42  E(vib)   ...       0.29
freq.     273.98  E(vib)   ...       0.28
freq.     313.40  E(vib)   ...       0.25
freq.     323.74  E(vib)   ...       0.25
freq.     355.76  E(vib)   ...       0.22
freq.     404.28  E(vib)   ...       0.19
freq.     417.33  E(vib)   ...       0.18
freq.     441.18  E(vib)   ...       0.17
freq.     456.76  E(vib)   ...       0.16
freq.     516.79  E(vib)   ...       0.13
freq.     553.58  E(vib)   ...       0.12
freq.     580.14  E(vib)   ...       0.11
freq.     595.16  E(vib)   ...       0.10
freq.     614.63  E(vib)   ...       0.10
freq.     630.65  E(vib)   ...       0.09
freq.     636.61  E(vib)   ...       0.09
freq.     681.95  E(vib)   ...       0.08
freq.     717.78  E(vib)   ...       0.07
freq.     756.62  E(vib)   ...       0.06
freq.     777.79  E(vib)   ...       0.05
freq.     796.47  E(vib)   ...       0.05
freq.     820.35  E(vib)   ...       0.05
freq.     867.47  E(vib)   ...       0.04
freq.     927.06  E(vib)   ...       0.03
freq.     938.13  E(vib)   ...       0.03
freq.     981.57  E(vib)   ...       0.02
freq.     998.54  E(vib)   ...       0.02
freq.    1005.44  E(vib)   ...       0.02
freq.    1009.40  E(vib)   ...       0.02
freq.    1015.57  E(vib)   ...       0.02
freq.    1020.29  E(vib)   ...       0.02
freq.    1056.24  E(vib)   ...       0.02
freq.    1060.62  E(vib)   ...       0.02
freq.    1064.53  E(vib)   ...       0.02
freq.    1086.17  E(vib)   ...       0.02
freq.    1088.35  E(vib)   ...       0.02
freq.    1100.05  E(vib)   ...       0.02
freq.    1135.50  E(vib)   ...       0.01
freq.    1147.35  E(vib)   ...       0.01
freq.    1177.99  E(vib)   ...       0.01
freq.    1184.03  E(vib)   ...       0.01
freq.    1196.01  E(vib)   ...       0.01
freq.    1200.10  E(vib)   ...       0.01
freq.    1212.68  E(vib)   ...       0.01
freq.    1241.97  E(vib)   ...       0.01
freq.    1291.46  E(vib)   ...       0.01
freq.    1305.59  E(vib)   ...       0.01
freq.    1331.42  E(vib)   ...       0.01
freq.    1336.33  E(vib)   ...       0.01
freq.    1367.26  E(vib)   ...       0.01
freq.    1386.20  E(vib)   ...       0.00
freq.    1407.67  E(vib)   ...       0.00
freq.    1415.73  E(vib)   ...       0.00
freq.    1431.71  E(vib)   ...       0.00
freq.    1440.61  E(vib)   ...       0.00
freq.    1453.80  E(vib)   ...       0.00
freq.    1462.36  E(vib)   ...       0.00
freq.    1484.77  E(vib)   ...       0.00
freq.    1493.65  E(vib)   ...       0.00
freq.    1499.45  E(vib)   ...       0.00
freq.    1503.04  E(vib)   ...       0.00
freq.    1507.13  E(vib)   ...       0.00
freq.    1508.07  E(vib)   ...       0.00
freq.    1509.68  E(vib)   ...       0.00
freq.    1514.13  E(vib)   ...       0.00
freq.    1521.48  E(vib)   ...       0.00
freq.    1523.49  E(vib)   ...       0.00
freq.    1545.53  E(vib)   ...       0.00
freq.    1553.31  E(vib)   ...       0.00
freq.    1640.94  E(vib)   ...       0.00
freq.    1660.95  E(vib)   ...       0.00
freq.    1703.02  E(vib)   ...       0.00
freq.    1710.79  E(vib)   ...       0.00
freq.    3045.14  E(vib)   ...       0.00
freq.    3052.25  E(vib)   ...       0.00
freq.    3057.95  E(vib)   ...       0.00
freq.    3070.70  E(vib)   ...       0.00
freq.    3072.10  E(vib)   ...       0.00
freq.    3099.00  E(vib)   ...       0.00
freq.    3111.21  E(vib)   ...       0.00
freq.    3116.14  E(vib)   ...       0.00
freq.    3124.89  E(vib)   ...       0.00
freq.    3128.19  E(vib)   ...       0.00
freq.    3141.63  E(vib)   ...       0.00
freq.    3146.49  E(vib)   ...       0.00
freq.    3168.89  E(vib)   ...       0.00
freq.    3185.37  E(vib)   ...       0.00
freq.    3191.47  E(vib)   ...       0.00
freq.    3194.62  E(vib)   ...       0.00
freq.    3199.61  E(vib)   ...       0.00
freq.    3207.64  E(vib)   ...       0.00
freq.    3214.60  E(vib)   ...       0.00
freq.    3223.38  E(vib)   ...       0.00

------------
INNER ENERGY
------------

The inner energy is: U= E(el) + E(ZPE) + E(vib) + E(rot) + E(trans)
    E(el)   - is the total energy from the electronic structure calculation
              = E(kin-el) + E(nuc-el) + E(el-el) + E(nuc-nuc)
    E(ZPE)  - the the zero temperature vibrational energy from the frequency calculation
    E(vib)  - the the finite temperature correction to E(ZPE) due to population
              of excited vibrational states
    E(rot)  - is the rotational thermal energy
    E(trans)- is the translational thermal energy

Summary of contributions to the inner energy U:
Electronic energy                ...   -805.08515849 Eh
Zero point energy                ...      0.32549218 Eh     204.25 kcal/mol
Thermal vibrational correction   ...      0.01604768 Eh      10.07 kcal/mol
Thermal rotational correction    ...      0.00141627 Eh       0.89 kcal/mol
Thermal translational correction ...      0.00141627 Eh       0.89 kcal/mol
-----------------------------------------------------------------------
Total thermal energy                   -804.74078609 Eh

Summary of corrections to the electronic energy:
(perhaps to be used in another calculation)
Total thermal correction                  0.01888022 Eh      11.85 kcal/mol
Non-thermal (ZPE) correction              0.32549218 Eh     204.25 kcal/mol
-----------------------------------------------------------------------
Total correction                          0.34437240 Eh     216.10 kcal/mol

--------
ENTHALPY
--------

Rotational constants in cm-1:     0.018849     0.011128     0.009238

                             ****ORCA TERMINATED NORMALLY****
TOTAL RUN TIME: 0 days 0 hours 40 minutes 10 seconds 124 msec
