                         Program Version 5.0.4 -  RELEASE  -
|  1> ! OPT FREQ B3LYP 6-31+G(d) D4 AUTOAUX
|  2>
|  3> %PAL NPROCS 4 END
|  4>
|  5> %maxcore 3375
|  6>
|  7> *xyzfile -1 1 /users/fjb15167/WWenergy/structures/Ne.xyz
|  8>
|  9>                          ****END OF INPUT****
 Total Charge           Charge          ....   -1
 Multiplicity           Mult            ....    1
 Number of Electrons    NEL             ....  116
Dispersion correction           -0.055858703
FINAL SINGLE POINT ENERGY      -762.132408908294
Dispersion correction            ... Starting D4
Dispersion correction           -0.054879465
FINAL SINGLE POINT ENERGY      -762.133277948832
Dispersion correction            ... Starting D4
Dispersion correction           -0.055459814
FINAL SINGLE POINT ENERGY      -762.132921308975
Dispersion correction            ... Starting D4
FINAL SINGLE POINT ENERGY      -762.132734858292
FINAL SINGLE POINT ENERGY      -762.132799299761
FINAL SINGLE POINT ENERGY      -762.133799802431
FINAL SINGLE POINT ENERGY      -762.133870183607
FINAL SINGLE POINT ENERGY      -762.133922634425
FINAL SINGLE POINT ENERGY      -762.133935903585
FINAL SINGLE POINT ENERGY      -762.133961965013
FINAL SINGLE POINT ENERGY      -762.133993700792
FINAL SINGLE POINT ENERGY      -762.134007895219
FINAL SINGLE POINT ENERGY      -762.134019758974
Dispersion correction           -0.055293238
FINAL SINGLE POINT ENERGY      -762.134028114683
Dispersion correction            ... Starting D4
Dispersion correction           -0.055299154
FINAL SINGLE POINT ENERGY      -762.134030781064
Dispersion correction            ... Starting D4
                    ***********************HURRAY********************

CARTESIAN COORDINATES (ANGSTROEM)
---------------------------------
  C     -0.516467    2.833751    0.459020
  H     -1.322368    2.102549    0.590258
  H     -0.818962    3.475863   -0.380274
  H     -0.408720    3.462594    1.346274
  C      0.841874    2.229971    0.158080
  O      1.879349    2.731095    0.628017
  N      0.878887    1.130308   -0.652344
  C      2.167115    0.569931   -1.037673
  H      2.278835    0.617044   -2.126653
  H      2.947498    1.181557   -0.577888
  C     -0.332020    0.469551   -1.184434
  H     -1.101260    1.224363   -1.360091
  H     -0.052745    0.046378   -2.156087
  C     -0.935987   -0.609798   -0.269075
  H     -0.700807   -1.620603   -0.618400
  H     -0.502738   -0.516279    0.735278
  C      2.329684   -0.915824   -0.687708
  N      2.318056   -1.277420    0.630987
  O      2.467068   -1.740905   -1.597287
  C      2.205013   -0.355699    1.751519
  H      1.192291   -0.375972    2.178551
  H      2.913076   -0.663951    2.533059
  H      2.437026    0.668672    1.462598
  C      2.231512   -2.687933    0.976081
  H      1.263399   -2.900655    1.451515
  H      2.325576   -3.281369    0.066748
  H      3.034382   -2.956677    1.676852
  C     -2.490894   -0.481767   -0.068264
  O     -2.968071    0.680777   -0.208283
  O     -3.072601   -1.543555    0.261625

 Multiplicity           Mult            ....    1
 Number of Electrons    NEL             ....  116
 Basis Dimension        Dim             ....  300

ORBITAL ENERGIES
----------------

  NO   OCC          E(Eh)            E(eV)
   0   2.0000     -19.022357      -517.6247
   1   2.0000     -19.011219      -517.3216
   2   2.0000     -18.927946      -515.0556
   3   2.0000     -18.923641      -514.9385
   4   2.0000     -14.275640      -388.4599
   5   2.0000     -14.261156      -388.0658
   6   2.0000     -10.192774      -277.3595
   7   2.0000     -10.181356      -277.0488
   8   2.0000     -10.122122      -275.4369
   9   2.0000     -10.120368      -275.3892
  10   2.0000     -10.119274      -275.3594
  11   2.0000     -10.108181      -275.0576
  12   2.0000     -10.091858      -274.6134
  13   2.0000     -10.064687      -273.8741
  14   2.0000     -10.038101      -273.1506
  15   2.0000      -0.943133       -25.6640
  16   2.0000      -0.928364       -25.2621
  17   2.0000      -0.855377       -23.2760
  18   2.0000      -0.845945       -23.0193
  19   2.0000      -0.828907       -22.5557
  20   2.0000      -0.771192       -20.9852
  21   2.0000      -0.665381       -18.1059
  22   2.0000      -0.632995       -17.2247
  23   2.0000      -0.632724       -17.2173
  24   2.0000      -0.614140       -16.7116
  25   2.0000      -0.580124       -15.7860
  26   2.0000      -0.525011       -14.2863
  27   2.0000      -0.461490       -12.5578
  28   2.0000      -0.442099       -12.0301
  29   2.0000      -0.415336       -11.3019
  30   2.0000      -0.391392       -10.6503
  31   2.0000      -0.384259       -10.4562
  32   2.0000      -0.373956       -10.1758
  33   2.0000      -0.358648        -9.7593
  34   2.0000      -0.355366        -9.6700
  35   2.0000      -0.337580        -9.1860
  36   2.0000      -0.321044        -8.7360
  37   2.0000      -0.317111        -8.6290
  38   2.0000      -0.314109        -8.5473
  39   2.0000      -0.308708        -8.4004
  40   2.0000      -0.305347        -8.3089
  41   2.0000      -0.296242        -8.0612
  42   2.0000      -0.290781        -7.9126
  43   2.0000      -0.279526        -7.6063
  44   2.0000      -0.275818        -7.5054
  45   2.0000      -0.269187        -7.3249
  46   2.0000      -0.259974        -7.0742
  47   2.0000      -0.242799        -6.6069
  48   2.0000      -0.234587        -6.3834
  49   2.0000      -0.221641        -6.0312
  50   2.0000      -0.194690        -5.2978
  51   2.0000      -0.167454        -4.5566
  52   2.0000      -0.154577        -4.2063
  53   2.0000      -0.151144        -4.1128
  54   2.0000      -0.139448        -3.7946
  55   2.0000      -0.084776        -2.3069
  56   2.0000      -0.074582        -2.0295
  57   2.0000      -0.065248        -1.7755
  58   0.0000       0.084920         2.3108
  59   0.0000       0.101246         2.7550
  60   0.0000       0.103998         2.8299
  61   0.0000       0.109849         2.9892
  62   0.0000       0.115824         3.1517

MULLIKEN ATOMIC CHARGES
-----------------------
   0 C :   -0.950035
   1 H :    0.309756
   2 H :    0.221846
   3 H :    0.210669
   4 C :    0.588470
   5 O :   -0.523026
   6 N :   -0.035085
   7 C :   -0.728137
   8 H :    0.223344
   9 H :    0.250844
  10 C :   -0.536111
  11 H :    0.256599
  12 H :    0.205141
  13 C :   -0.413062
  14 H :    0.223794
  15 H :    0.192370
  16 C :    0.581236
  17 N :   -0.077736
  18 O :   -0.484276
  19 C :   -0.498677
  20 H :    0.218401
  21 H :    0.184473
  22 H :    0.251014
  23 C :   -0.561728
  24 H :    0.220945
  25 H :    0.250081
  26 H :    0.184885
  27 C :    0.438094
  28 O :   -0.607042
  29 O :   -0.597047
Sum of atomic charges:   -1.0000000

LOEWDIN ATOMIC CHARGES
----------------------
   0 C :   -0.479207
   1 H :    0.257719
   2 H :    0.212908
   3 H :    0.205388
   4 C :    0.088671
   5 O :   -0.464570
   6 N :   -0.325745
   7 C :   -0.219873
   8 H :    0.228937
   9 H :    0.253518
  10 C :   -0.251923
  11 H :    0.246467
  12 H :    0.216796
  13 C :   -0.359990
  14 H :    0.215121
  15 H :    0.222913
  16 C :    0.092317
  17 N :   -0.344542
  18 O :   -0.409050
  19 C :   -0.366159
  20 H :    0.210319
  21 H :    0.190192
  22 H :    0.247645
  23 C :   -0.364128
  24 H :    0.207717
  25 H :    0.235879
  26 H :    0.188220
  27 C :    0.116713
  28 O :   -0.546909
  29 O :   -0.505342

  Mayer bond orders larger than 0.100000
B(  0-C ,  1-H ) :   0.9011 B(  0-C ,  2-H ) :   0.9498 B(  0-C ,  3-H ) :   1.0098
B(  0-C ,  4-C ) :   0.5265 B(  0-C ,  6-N ) :  -0.1518 B(  4-C ,  5-O ) :   1.8019
B(  4-C ,  6-N ) :   1.2145 B(  5-O ,  7-C ) :  -0.1198 B(  6-N ,  7-C ) :   0.6896
B(  6-N , 10-C ) :   0.6935 B(  7-C ,  8-H ) :   1.0673 B(  7-C ,  9-H ) :   1.0084
B(  7-C , 13-C ) :   0.1109 B(  7-C , 16-C ) :   0.4530 B(  7-C , 17-N ) :  -0.1630
B(  7-C , 18-O ) :  -0.2650 B(  8-H , 16-C ) :  -0.1288 B( 10-C , 11-H ) :   1.0420
B( 10-C , 12-H ) :   1.0345 B( 10-C , 13-C ) :   0.2277 B( 10-C , 27-C ) :   0.1406
B( 11-H , 13-C ) :  -0.1454 B( 13-C , 14-H ) :   0.8704 B( 13-C , 15-H ) :   0.9275
B( 13-C , 27-C ) :   1.0210 B( 16-C , 17-N ) :   1.2859 B( 16-C , 18-O ) :   2.1569
B( 17-N , 19-C ) :   0.8461 B( 17-N , 23-C ) :   0.8075 B( 19-C , 20-H ) :   0.9376
B( 19-C , 21-H ) :   0.9484 B( 19-C , 22-H ) :   0.9120 B( 19-C , 23-C ) :  -0.1031
B( 23-C , 24-H ) :   0.9544 B( 23-C , 25-H ) :   0.9582 B( 23-C , 26-H ) :   0.9492
B( 27-C , 28-O ) :   1.5577 B( 27-C , 29-O ) :   1.5631

Dispersion correction           -0.055305353
FINAL SINGLE POINT ENERGY      -762.134031405953

DIPOLE MOMENT
-------------
                                X             Y             Z
Electronic contribution:     -2.05069       0.85478      -4.63158
Nuclear contribution   :      6.24815      -0.42375       5.09619
                        -----------------------------------------
Total Dipole Moment    :      4.19747       0.43103       0.46461
                        -----------------------------------------
Magnitude (a.u.)       :      4.24504
Magnitude (Debye)      :     10.79004

Dispersion correction in the Hessian             ... Starting D4

VIBRATIONAL FREQUENCIES
-----------------------

Scaling factor for frequencies =  1.000000000  (already applied!)

   0:         0.00 cm**-1
   1:         0.00 cm**-1
   2:         0.00 cm**-1
   3:         0.00 cm**-1
   4:         0.00 cm**-1
   5:         0.00 cm**-1
   6:        22.41 cm**-1
   7:        37.51 cm**-1
   8:        50.27 cm**-1
   9:        67.44 cm**-1
  10:        78.01 cm**-1
  11:        95.79 cm**-1
  12:       103.48 cm**-1
  13:       121.84 cm**-1
  14:       139.54 cm**-1
  15:       169.80 cm**-1
  16:       176.50 cm**-1
  17:       207.23 cm**-1
  18:       247.47 cm**-1
  19:       261.69 cm**-1
  20:       286.53 cm**-1
  21:       351.47 cm**-1
  22:       368.19 cm**-1
  23:       402.56 cm**-1
  24:       421.79 cm**-1
  25:       449.06 cm**-1
  26:       465.30 cm**-1
  27:       506.02 cm**-1
  28:       572.70 cm**-1
  29:       594.88 cm**-1
  30:       604.90 cm**-1
  31:       632.12 cm**-1
  32:       661.20 cm**-1
  33:       694.37 cm**-1
  34:       753.77 cm**-1
  35:       781.70 cm**-1
  36:       838.73 cm**-1
  37:       928.37 cm**-1
  38:       961.96 cm**-1
  39:      1003.90 cm**-1
  40:      1018.25 cm**-1
  41:      1032.27 cm**-1
  42:      1046.48 cm**-1
  43:      1064.67 cm**-1
  44:      1092.16 cm**-1
  45:      1105.04 cm**-1
  46:      1136.25 cm**-1
  47:      1169.54 cm**-1
  48:      1182.63 cm**-1
  49:      1218.68 cm**-1
  50:      1224.88 cm**-1
  51:      1266.80 cm**-1
  52:      1285.87 cm**-1
  53:      1291.09 cm**-1
  54:      1311.18 cm**-1
  55:      1342.31 cm**-1
  56:      1367.26 cm**-1
  57:      1390.17 cm**-1
  58:      1431.06 cm**-1
  59:      1442.55 cm**-1
  60:      1453.74 cm**-1
  61:      1473.46 cm**-1
  62:      1486.60 cm**-1
  63:      1490.80 cm**-1
  64:      1494.49 cm**-1
  65:      1509.00 cm**-1
  66:      1516.92 cm**-1
  67:      1520.51 cm**-1
  68:      1527.38 cm**-1
  69:      1531.93 cm**-1
  70:      1545.67 cm**-1
  71:      1558.17 cm**-1
  72:      1677.02 cm**-1
  73:      1685.26 cm**-1
  74:      1711.49 cm**-1
  75:      3014.87 cm**-1
  76:      3023.01 cm**-1
  77:      3033.60 cm**-1
  78:      3049.73 cm**-1
  79:      3060.15 cm**-1
  80:      3061.34 cm**-1
  81:      3063.71 cm**-1
  82:      3066.20 cm**-1
  83:      3092.21 cm**-1
  84:      3100.20 cm**-1
  85:      3128.34 cm**-1
  86:      3131.93 cm**-1
  87:      3146.56 cm**-1
  88:      3176.18 cm**-1
  89:      3178.14 cm**-1

IR SPECTRUM
-----------

 Mode   freq       eps      Int      T**2         TX        TY        TZ
       cm**-1   L/(mol*cm) km/mol    a.u.
----------------------------------------------------------------------------
  6:     22.41   0.002598   13.13  0.036166  (-0.096600 -0.058395 -0.153049)
  7:     37.51   0.000524    2.65  0.004362  (-0.046608  0.027955 -0.037522)
  8:     50.27   0.000677    3.42  0.004202  ( 0.018066 -0.059912 -0.016904)
  9:     67.44   0.000626    3.16  0.002896  ( 0.047306  0.025538  0.002345)
 10:     78.01   0.000591    2.99  0.002363  (-0.043988  0.017637  0.010818)
 11:     95.79   0.000574    2.90  0.001869  ( 0.005765 -0.039386 -0.016854)
 12:    103.48   0.000550    2.78  0.001659  (-0.012053 -0.038017  0.008290)
 13:    121.84   0.002493   12.60  0.006386  ( 0.011106 -0.064811  0.045411)
 14:    139.54   0.000414    2.09  0.000926  (-0.008227 -0.028808  0.005337)
 15:    169.80   0.000178    0.90  0.000327  ( 0.000096  0.014705 -0.010530)
 16:    176.50   0.000077    0.39  0.000136  (-0.006474  0.009594 -0.001485)
 17:    207.23   0.000428    2.16  0.000645  ( 0.019636 -0.007314 -0.014350)
 18:    247.47   0.000585    2.95  0.000737  (-0.005632 -0.024880  0.009295)
 19:    261.69   0.002805   14.18  0.003345  (-0.056027  0.000962  0.014336)
 20:    286.53   0.001039    5.25  0.001132  (-0.029010  0.008305 -0.014881)
 21:    351.47   0.001492    7.54  0.001325  (-0.002980 -0.003505  0.036106)
 22:    368.19   0.000553    2.79  0.000469  ( 0.018214 -0.011549 -0.001873)
 23:    402.56   0.001224    6.19  0.000949  (-0.014562 -0.023792  0.013073)
 24:    421.79   0.000291    1.47  0.000215  (-0.007965  0.012039  0.002648)
 25:    449.06   0.001824    9.22  0.001267  ( 0.021548  0.025647  0.012055)
 26:    465.30   0.001371    6.93  0.000919  ( 0.002276 -0.020907  0.021841)
 27:    506.02   0.003510   17.74  0.002164  ( 0.043723 -0.011611 -0.010859)
 28:    572.70   0.002509   12.68  0.001367  ( 0.011668  0.034652 -0.005483)
 29:    594.88   0.002121   10.72  0.001113  (-0.025703 -0.017386 -0.012236)
 30:    604.90   0.001973    9.97  0.001018  (-0.028817  0.000524 -0.013680)
 31:    632.12   0.001046    5.29  0.000517  ( 0.012525  0.010756 -0.015620)
 32:    661.20   0.001397    7.06  0.000659  (-0.012593  0.004718  0.021870)
 33:    694.37   0.000748    3.78  0.000336  (-0.005965  0.006987 -0.015861)
 34:    753.77   0.001588    8.03  0.000658  (-0.003810 -0.017635  0.018223)
 35:    781.70   0.004472   22.60  0.001785  (-0.038233  0.006355 -0.016829)
 36:    838.73   0.010091   50.99  0.003754  (-0.056958  0.000802  0.022574)
 37:    928.37   0.002180   11.02  0.000733  (-0.019674 -0.009508 -0.015979)
 38:    961.96   0.003109   15.71  0.001009  (-0.017262 -0.020856 -0.016600)
 39:   1003.90   0.005396   27.27  0.001677  (-0.002954 -0.026969  0.030683)
 40:   1018.25   0.000827    4.18  0.000254  ( 0.014100 -0.000416  0.007388)
 41:   1032.27   0.005504   27.81  0.001664  (-0.011923 -0.038936 -0.002383)
 42:   1046.48   0.003586   18.12  0.001069  ( 0.020347 -0.013297 -0.021877)
 43:   1064.67   0.000500    2.53  0.000147  (-0.007868  0.002159 -0.008950)
 44:   1092.16   0.001208    6.11  0.000345  ( 0.001617  0.017270  0.006661)
 45:   1105.04   0.003187   16.11  0.000900  ( 0.009310  0.004075  0.028227)
 46:   1136.25   0.000193    0.97  0.000053  ( 0.004179 -0.005926  0.000623)
 47:   1169.54   0.005840   29.51  0.001558  ( 0.013694 -0.009638  0.035747)
 48:   1182.63   0.000297    1.50  0.000078  (-0.002654 -0.002606 -0.008040)
 49:   1218.68   0.005818   29.40  0.001490  (-0.022344 -0.003080  0.031323)
 50:   1224.88   0.000582    2.94  0.000148  (-0.010572  0.005969  0.000994)
 51:   1266.80   0.006952   35.13  0.001712  (-0.013435 -0.033861 -0.019631)
 52:   1285.87   0.003929   19.85  0.000953  (-0.014448  0.006680  0.026459)
 53:   1291.09   0.021318  107.73  0.005153  (-0.015672  0.069824  0.005627)
 54:   1311.18   0.004042   20.43  0.000962  ( 0.023501  0.015062 -0.013520)
 55:   1342.31   0.044012  222.42  0.010232  ( 0.101007 -0.005399 -0.000686)
 56:   1367.26   0.004751   24.01  0.001084  (-0.032748 -0.002998 -0.001711)
 57:   1390.17   0.007261   36.70  0.001630  ( 0.033023 -0.011123 -0.020392)
 58:   1431.06   0.002598   13.13  0.000567  (-0.019855 -0.005052  0.012114)
 59:   1442.55   0.010736   54.26  0.002323  ( 0.012029 -0.022245  0.041025)
 60:   1453.74   0.009946   50.26  0.002135  ( 0.010536 -0.038993  0.022442)
 61:   1473.46   0.022573  114.07  0.004781  (-0.013495  0.059001  0.033427)
 62:   1486.60   0.001999   10.10  0.000420  ( 0.019738 -0.002037  0.005081)
 63:   1490.80   0.002527   12.77  0.000529  ( 0.018400  0.013771 -0.000871)
 64:   1494.49   0.007408   37.43  0.001547  (-0.031451 -0.018772 -0.014326)
 65:   1509.00   0.001870    9.45  0.000387  ( 0.012636 -0.013274 -0.007136)
 66:   1516.92   0.001257    6.35  0.000259  ( 0.007631 -0.012340 -0.006929)
 67:   1520.51   0.007680   38.81  0.001576  ( 0.023460 -0.015001 -0.028299)
 68:   1527.38   0.001098    5.55  0.000224  (-0.010529 -0.000398  0.010648)
 69:   1531.93   0.006453   32.61  0.001315  ( 0.033711  0.004037  0.012721)
 70:   1545.67   0.005569   28.15  0.001124  ( 0.017150  0.027767 -0.007702)
 71:   1558.17   0.011000   55.59  0.002203  ( 0.001694 -0.032010  0.034285)
 72:   1677.02   0.067895  343.12  0.012634  ( 0.075717  0.066736  0.049471)
 73:   1685.26   0.126192  637.72  0.023367  (-0.029531 -0.147196  0.028784)
 74:   1711.49   0.080474  406.68  0.014673  (-0.013692  0.047804  0.110456)
 75:   3014.87   0.005028   25.41  0.000520  ( 0.002880 -0.021259 -0.007760)
 76:   3023.01   0.022831  115.38  0.002357  (-0.005752  0.020150 -0.043792)
 77:   3033.60   0.006605   33.38  0.000679  ( 0.007020  0.025096  0.000590)
 78:   3049.73   0.007266   36.72  0.000743  ( 0.016633 -0.012253  0.017795)
 79:   3060.15   0.015464   78.15  0.001577  ( 0.036868 -0.006483  0.013254)
 80:   3061.34   0.000726    3.67  0.000074  (-0.002656  0.002015 -0.007932)
 81:   3063.71   0.001481    7.49  0.000151  (-0.012234  0.000948 -0.000545)
 82:   3066.20   0.012505   63.19  0.001273  ( 0.016954 -0.002365 -0.031299)
 83:   3092.21   0.006374   32.21  0.000643  ( 0.017349  0.011914  0.014153)
 84:   3100.20   0.004819   24.35  0.000485  (-0.006065  0.015406  0.014525)
 85:   3128.34   0.001865    9.43  0.000186  (-0.007819  0.009243 -0.006284)
 86:   3131.93   0.002987   15.10  0.000298  (-0.005283 -0.015425 -0.005640)
 87:   3146.56   0.002472   12.49  0.000245  (-0.010209  0.001899  0.011718)
 88:   3176.18   0.001304    6.59  0.000128  ( 0.004277 -0.010479  0.000044)
 89:   3178.14   0.000431    2.18  0.000042  ( 0.005782 -0.002063  0.002154)

--------------------------
THERMOCHEMISTRY AT 298.15K
--------------------------

Temperature         ... 298.15 K
Pressure            ... 1.00 atm
Total Mass          ... 215.23 AMU

Throughout the following assumptions are being made:
  (1) The electronic state is orbitally nondegenerate
  (2) There are no thermally accessible electronically excited states
  (3) Hindered rotations indicated by low frequency modes are not
      treated as such but are treated as vibrations and this may
      cause some error
  (4) All equations used are the standard statistical mechanics
      equations for an ideal gas
  (5) All vibrations are strictly harmonic

freq.      22.41  E(vib)   ...       0.56
freq.      37.51  E(vib)   ...       0.54
freq.      50.27  E(vib)   ...       0.52
freq.      67.44  E(vib)   ...       0.50
freq.      78.01  E(vib)   ...       0.49
freq.      95.79  E(vib)   ...       0.47
freq.     103.48  E(vib)   ...       0.46
freq.     121.84  E(vib)   ...       0.44
freq.     139.54  E(vib)   ...       0.42
freq.     169.80  E(vib)   ...       0.38
freq.     176.50  E(vib)   ...       0.38
freq.     207.23  E(vib)   ...       0.34
freq.     247.47  E(vib)   ...       0.31
freq.     261.69  E(vib)   ...       0.30
freq.     286.53  E(vib)   ...       0.27
freq.     351.47  E(vib)   ...       0.23
freq.     368.19  E(vib)   ...       0.21
freq.     402.56  E(vib)   ...       0.19
freq.     421.79  E(vib)   ...       0.18
freq.     449.06  E(vib)   ...       0.17
freq.     465.30  E(vib)   ...       0.16
freq.     506.02  E(vib)   ...       0.14
freq.     572.70  E(vib)   ...       0.11
freq.     594.88  E(vib)   ...       0.10
freq.     604.90  E(vib)   ...       0.10
freq.     632.12  E(vib)   ...       0.09
freq.     661.20  E(vib)   ...       0.08
freq.     694.37  E(vib)   ...       0.07
freq.     753.77  E(vib)   ...       0.06
freq.     781.70  E(vib)   ...       0.05
freq.     838.73  E(vib)   ...       0.04
freq.     928.37  E(vib)   ...       0.03
freq.     961.96  E(vib)   ...       0.03
freq.    1003.90  E(vib)   ...       0.02
freq.    1018.25  E(vib)   ...       0.02
freq.    1032.27  E(vib)   ...       0.02
freq.    1046.48  E(vib)   ...       0.02
freq.    1064.67  E(vib)   ...       0.02
freq.    1092.16  E(vib)   ...       0.02
freq.    1105.04  E(vib)   ...       0.02
freq.    1136.25  E(vib)   ...       0.01
freq.    1169.54  E(vib)   ...       0.01
freq.    1182.63  E(vib)   ...       0.01
freq.    1218.68  E(vib)   ...       0.01
freq.    1224.88  E(vib)   ...       0.01
freq.    1266.80  E(vib)   ...       0.01
freq.    1285.87  E(vib)   ...       0.01
freq.    1291.09  E(vib)   ...       0.01
freq.    1311.18  E(vib)   ...       0.01
freq.    1342.31  E(vib)   ...       0.01
freq.    1367.26  E(vib)   ...       0.01
freq.    1390.17  E(vib)   ...       0.00
freq.    1431.06  E(vib)   ...       0.00
freq.    1442.55  E(vib)   ...       0.00
freq.    1453.74  E(vib)   ...       0.00
freq.    1473.46  E(vib)   ...       0.00
freq.    1486.60  E(vib)   ...       0.00
freq.    1490.80  E(vib)   ...       0.00
freq.    1494.49  E(vib)   ...       0.00
freq.    1509.00  E(vib)   ...       0.00
freq.    1516.92  E(vib)   ...       0.00
freq.    1520.51  E(vib)   ...       0.00
freq.    1527.38  E(vib)   ...       0.00
freq.    1531.93  E(vib)   ...       0.00
freq.    1545.67  E(vib)   ...       0.00
freq.    1558.17  E(vib)   ...       0.00
freq.    1677.02  E(vib)   ...       0.00
freq.    1685.26  E(vib)   ...       0.00
freq.    1711.49  E(vib)   ...       0.00
freq.    3014.87  E(vib)   ...       0.00
freq.    3023.01  E(vib)   ...       0.00
freq.    3033.60  E(vib)   ...       0.00
freq.    3049.73  E(vib)   ...       0.00
freq.    3060.15  E(vib)   ...       0.00
freq.    3061.34  E(vib)   ...       0.00
freq.    3063.71  E(vib)   ...       0.00
freq.    3066.20  E(vib)   ...       0.00
freq.    3092.21  E(vib)   ...       0.00
freq.    3100.20  E(vib)   ...       0.00
freq.    3128.34  E(vib)   ...       0.00
freq.    3131.93  E(vib)   ...       0.00
freq.    3146.56  E(vib)   ...       0.00
freq.    3176.18  E(vib)   ...       0.00
freq.    3178.14  E(vib)   ...       0.00

------------
INNER ENERGY
------------

The inner energy is: U= E(el) + E(ZPE) + E(vib) + E(rot) + E(trans)
    E(el)   - is the total energy from the electronic structure calculation
              = E(kin-el) + E(nuc-el) + E(el-el) + E(nuc-nuc)
    E(ZPE)  - the the zero temperature vibrational energy from the frequency calculation
    E(vib)  - the the finite temperature correction to E(ZPE) due to population
              of excited vibrational states
    E(rot)  - is the rotational thermal energy
    E(trans)- is the translational thermal energy

Summary of contributions to the inner energy U:
Electronic energy                ...   -762.13403141 Eh
Zero point energy                ...      0.24601085 Eh     154.37 kcal/mol
Thermal vibrational correction   ...      0.01385017 Eh       8.69 kcal/mol
Thermal rotational correction    ...      0.00141627 Eh       0.89 kcal/mol
Thermal translational correction ...      0.00141627 Eh       0.89 kcal/mol
-----------------------------------------------------------------------
Total thermal energy                   -761.87133785 Eh

Summary of corrections to the electronic energy:
(perhaps to be used in another calculation)
Total thermal correction                  0.01668271 Eh      10.47 kcal/mol
Non-thermal (ZPE) correction              0.24601085 Eh     154.37 kcal/mol
-----------------------------------------------------------------------
Total correction                          0.26269356 Eh     164.84 kcal/mol

--------
ENTHALPY
--------

The enthalpy is H = U + kB*T
                kB is Boltzmann's constant
Total free energy                 ...   -761.87133785 Eh
Thermal Enthalpy correction       ...      0.00094421 Eh       0.59 kcal/mol
-----------------------------------------------------------------------
Total Enthalpy                    ...   -761.87039364 Eh

Note: Only C1 symmetry has been detected, increase convergence thresholds
      if your molecule has a higher symmetry. Symmetry factor of 1.0 is
      used for the rotational entropy correction.

Note: Rotational entropy computed according to Herzberg
Infrared and Raman Spectra, Chapter V,1, Van Nostrand Reinhold, 1945
Point Group:  C1, Symmetry Number:   1
Rotational constants in cm-1:     0.022444     0.015727     0.011520

Vibrational entropy computed according to the QRRHO of S. Grimme
Chem.Eur.J. 2012 18 9955

-------
ENTROPY

                             ****ORCA TERMINATED NORMALLY****
TOTAL RUN TIME: 0 days 1 hours 2 minutes 6 seconds 56 msec
