                         Program Version 5.0.4 -  RELEASE  -
|  1> ! OPT FREQ B3LYP 6-311G(d) D4 AUTOAUX CPCM(water)
|  2>
|  3> %PAL NPROCS 4 END
|  4>
|  5> %maxcore 3375
|  6>
|  7> *xyzfile 0 1 /users/fjb15167/WWenergy/structures/NfeBr.xyz
|  8>
|  9>                          ****END OF INPUT****
 Total Charge           Charge          ....    0
 Multiplicity           Mult            ....    1
 Number of Electrons    NEL             ....  168
Dispersion correction           -0.076163393
FINAL SINGLE POINT ENERGY     -3378.703986521428
Dispersion correction            ... Starting D4
Dispersion correction           -0.075310871
FINAL SINGLE POINT ENERGY     -3378.705013428614
Dispersion correction            ... Starting D4
Dispersion correction           -0.075776769
FINAL SINGLE POINT ENERGY     -3378.705298088478
Dispersion correction            ... Starting D4
FINAL SINGLE POINT ENERGY     -3378.705418200326
FINAL SINGLE POINT ENERGY     -3378.705494421277
FINAL SINGLE POINT ENERGY     -3378.705472133627
FINAL SINGLE POINT ENERGY     -3378.705553493542
FINAL SINGLE POINT ENERGY     -3378.705568120617
FINAL SINGLE POINT ENERGY     -3378.705589160536
FINAL SINGLE POINT ENERGY     -3378.705596189440
Dispersion correction           -0.075582350
FINAL SINGLE POINT ENERGY     -3378.705603214707
Dispersion correction            ... Starting D4
Dispersion correction           -0.075575122
FINAL SINGLE POINT ENERGY     -3378.705605795509
Dispersion correction            ... Starting D4
                    ***********************HURRAY********************

CARTESIAN COORDINATES (ANGSTROEM)
---------------------------------
  C      2.969366    3.135809    0.351568
  H      2.228796    2.884300    1.112250
  H      2.459866    3.705134   -0.431372
  H      3.737641    3.765859    0.795676
  C      3.647141    1.912377   -0.231983
  O      4.876979    1.835414   -0.278903
  N      2.843695    0.915182   -0.706241
  C      3.445147   -0.230637   -1.385806
  H      3.137817   -0.232533   -2.433663
  H      4.525777   -0.116003   -1.343657
  C      1.379415    0.973342   -0.691394
  H      1.047136    2.001828   -0.833160
  H      1.025078    0.409753   -1.556867
  C      0.751541    0.389782    0.589920
  H      1.140807   -0.615191    0.759854
  H      1.046856    0.994897    1.450543
  C     -0.749918    0.338436    0.475969
  C     -1.374763   -0.761282   -0.121381
  C     -1.545401    1.399263    0.917607
  C     -2.758521   -0.812679   -0.270582
  H     -0.771957   -1.592879   -0.474294
  C     -2.932068    1.368824    0.778701
  H     -1.080383    2.262760    1.383915
  C     -3.520025    0.258178    0.184792
  H     -3.230193   -1.673415   -0.729281
  H     -3.537525    2.195343    1.131152
  C      2.986244   -1.578752   -0.817624
  N      3.414101   -1.931505    0.418420
  O      2.237780   -2.289424   -1.495907
  C      4.229974   -1.094783    1.291042
  H      3.613180   -0.629930    2.068014
  H      4.981680   -1.720284    1.778119
  H      4.742120   -0.312319    0.740086
  C      2.897482   -3.147576    1.035964
  H      2.181758   -2.898906    1.827667
  H      2.401887   -3.752102    0.282513
  H      3.721264   -3.713510    1.477114
  Br    -5.434775    0.196228   -0.006772

 Multiplicity           Mult            ....    1
 Number of Electrons    NEL             ....  168
 Basis Dimension        Dim             ....  425

ORBITAL ENERGIES
----------------

  NO   OCC          E(Eh)            E(eV)
   0   2.0000    -482.830136    -13138.4759
   1   2.0000     -62.483191     -1700.2541
   2   2.0000     -56.303426     -1532.0941
   3   2.0000     -56.299705     -1531.9929
   4   2.0000     -56.299574     -1531.9893
   5   2.0000     -19.084736      -519.3221
   6   2.0000     -19.083182      -519.2798
   7   2.0000     -14.346312      -390.3830
   8   2.0000     -14.344763      -390.3408
   9   2.0000     -10.273753      -279.5630
  10   2.0000     -10.270516      -279.4749
  11   2.0000     -10.230546      -278.3873
  12   2.0000     -10.206692      -277.7382
  13   2.0000     -10.205723      -277.7118
  14   2.0000     -10.191455      -277.3236
  15   2.0000     -10.188383      -277.2400
  16   2.0000     -10.186886      -277.1993
  17   2.0000     -10.184862      -277.1442
  18   2.0000     -10.184799      -277.1425
  19   2.0000     -10.179558      -276.9998
  20   2.0000     -10.179247      -276.9914
  21   2.0000     -10.172440      -276.8062
  22   2.0000     -10.165595      -276.6199
  23   2.0000      -8.692890      -236.5456
  24   2.0000      -6.524015      -177.5275
  25   2.0000      -6.511602      -177.1897
  26   2.0000      -6.511295      -177.1813
  27   2.0000      -2.635022       -71.7026
  28   2.0000      -2.631486       -71.6064
  29   2.0000      -2.631272       -71.6005
  30   2.0000      -2.621404       -71.3320
  31   2.0000      -2.621398       -71.3319
  32   2.0000      -1.042980       -28.3809
  33   2.0000      -1.036488       -28.2043
  34   2.0000      -0.943006       -25.6605
  35   2.0000      -0.934327       -25.4243
  36   2.0000      -0.879810       -23.9408
  37   2.0000      -0.819263       -22.2933
  38   2.0000      -0.777366       -21.1532
  39   2.0000      -0.762581       -20.7509
  40   2.0000      -0.759417       -20.6648
  41   2.0000      -0.727484       -19.7958
  42   2.0000      -0.717294       -19.5186
  43   2.0000      -0.709847       -19.3159
  44   2.0000      -0.677685       -18.4407
  45   2.0000      -0.648123       -17.6363
  46   2.0000      -0.622228       -16.9317
  47   2.0000      -0.586095       -15.9485
  48   2.0000      -0.558811       -15.2060
  49   2.0000      -0.544435       -14.8148
  50   2.0000      -0.520473       -14.1628
  51   2.0000      -0.506971       -13.7954
  52   2.0000      -0.494276       -13.4499
  53   2.0000      -0.485249       -13.2043
  54   2.0000      -0.477268       -12.9871
  55   2.0000      -0.471828       -12.8391
  56   2.0000      -0.463729       -12.6187
  57   2.0000      -0.460203       -12.5227
  58   2.0000      -0.453091       -12.3292
  59   2.0000      -0.435868       -11.8606
  60   2.0000      -0.424235       -11.5440
  61   2.0000      -0.421217       -11.4619
  62   2.0000      -0.414177       -11.2703
  63   2.0000      -0.410380       -11.1670
  64   2.0000      -0.402335       -10.9481
  65   2.0000      -0.401069       -10.9136
  66   2.0000      -0.399995       -10.8844
  67   2.0000      -0.397455       -10.8153
  68   2.0000      -0.388926       -10.5832
  69   2.0000      -0.381520       -10.3817
  70   2.0000      -0.378783       -10.3072
  71   2.0000      -0.372993       -10.1497
  72   2.0000      -0.365007        -9.9323
  73   2.0000      -0.356677        -9.7057
  74   2.0000      -0.348640        -9.4870
  75   2.0000      -0.342625        -9.3233
  76   2.0000      -0.314480        -8.5574
  77   2.0000      -0.295382        -8.0377
  78   2.0000      -0.268885        -7.3167
  79   2.0000      -0.266123        -7.2416
  80   2.0000      -0.262378        -7.1397
  81   2.0000      -0.251074        -6.8321
  82   2.0000      -0.246227        -6.7002
  83   2.0000      -0.238794        -6.4979
  84   0.0000      -0.020102        -0.5470
  85   0.0000      -0.019078        -0.5191
  86   0.0000      -0.008720        -0.2373
  87   0.0000       0.007769         0.2114
  88   0.0000       0.019126         0.5204

MULLIKEN ATOMIC CHARGES
-----------------------
   0 C :   -0.765642
   1 H :    0.258815
   2 H :    0.260421
   3 H :    0.239098
   4 C :    0.447255
   5 O :   -0.447082
   6 N :   -0.298670
   7 C :   -0.466444
   8 H :    0.258197
   9 H :    0.275270
  10 C :   -0.343258
  11 H :    0.266151
  12 H :    0.257307
  13 C :   -0.510698
  14 H :    0.272912
  15 H :    0.246573
  16 C :    0.061926
  17 C :   -0.219577
  18 C :   -0.221755
  19 C :   -0.173766
  20 H :    0.220100
  21 C :   -0.172849
  22 H :    0.228690
  23 C :   -0.133037
  24 H :    0.241038
  25 H :    0.240941
  26 C :    0.431053
  27 N :   -0.301233
  28 O :   -0.449931
  29 C :   -0.531501
  30 H :    0.233657
  31 H :    0.237422
  32 H :    0.248960
  33 C :   -0.531238
  34 H :    0.230909
  35 H :    0.234914
  36 H :    0.238106
  37 Br:   -0.063033
Sum of atomic charges:   -0.0000000

LOEWDIN ATOMIC CHARGES
----------------------
   0 C :   -0.318545
   1 H :    0.130337
   2 H :    0.139256
   3 H :    0.124484
   4 C :   -0.065266
   5 O :   -0.195408
   6 N :    0.058437
   7 C :   -0.170890
   8 H :    0.119873
   9 H :    0.129011
  10 C :   -0.144950
  11 H :    0.120113
  12 H :    0.116565
  13 C :   -0.191422
  14 H :    0.117500
  15 H :    0.116661
  16 C :   -0.039537
  17 C :   -0.094198
  18 C :   -0.095178
  19 C :   -0.119768
  20 H :    0.119480
  21 C :   -0.119835
  22 H :    0.124279
  23 C :   -0.149916
  24 H :    0.126209
  25 H :    0.126115
  26 C :   -0.085499
  27 N :    0.049939
  28 O :   -0.198413
  29 C :   -0.244451
  30 H :    0.110887
  31 H :    0.116809
  32 H :    0.113275
  33 C :   -0.245892
  34 H :    0.112031
  35 H :    0.115252
  36 H :    0.116480
  37 Br:    0.076174

  Mayer bond orders larger than 0.100000
B(  0-C ,  1-H ) :   0.9011 B(  0-C ,  2-H ) :   0.9045 B(  0-C ,  3-H ) :   0.9318
B(  0-C ,  4-C ) :   0.9445 B(  4-C ,  5-O ) :   1.8375 B(  4-C ,  6-N ) :   1.2110
B(  6-N ,  7-C ) :   0.9532 B(  6-N , 10-C ) :   0.9303 B(  7-C ,  8-H ) :   0.9130
B(  7-C ,  9-H ) :   0.8850 B(  7-C , 26-C ) :   0.9074 B( 10-C , 11-H ) :   0.9093
B( 10-C , 12-H ) :   0.9139 B( 10-C , 13-C ) :   0.9205 B( 13-C , 14-H ) :   0.9139
B( 13-C , 15-H ) :   0.9299 B( 13-C , 16-C ) :   0.9726 B( 16-C , 17-C ) :   1.4072
B( 16-C , 18-C ) :   1.4144 B( 17-C , 19-C ) :   1.4520 B( 17-C , 20-H ) :   0.9198
B( 18-C , 21-C ) :   1.4449 B( 18-C , 22-H ) :   0.9243 B( 19-C , 23-C ) :   1.3890
B( 19-C , 24-H ) :   0.9194 B( 21-C , 23-C ) :   1.3935 B( 21-C , 25-H ) :   0.9191
B( 23-C , 37-Br) :   1.0157 B( 26-C , 27-N ) :   1.2311 B( 26-C , 28-O ) :   1.8433
B( 27-N , 29-C ) :   0.9485 B( 27-N , 33-C ) :   0.9572 B( 29-C , 30-H ) :   0.9118
B( 29-C , 31-H ) :   0.9218 B( 29-C , 32-H ) :   0.8860 B( 33-C , 34-H ) :   0.9178
B( 33-C , 35-H ) :   0.9127 B( 33-C , 36-H ) :   0.9221

Dispersion correction           -0.075574100
FINAL SINGLE POINT ENERGY     -3378.705606512349

DIPOLE MOMENT
-------------
                                X             Y             Z
Electronic contribution:    -83.90110       2.09014      -5.12067
Nuclear contribution   :     84.16286      -1.48111       6.62240
                        -----------------------------------------
Total Dipole Moment    :      0.26176       0.60903       1.50172
                        -----------------------------------------
Magnitude (a.u.)       :      1.64153
Magnitude (Debye)      :      4.17243

Dispersion correction in the Hessian             ... Starting D4

VIBRATIONAL FREQUENCIES
-----------------------

Scaling factor for frequencies =  1.000000000  (already applied!)

   0:         0.00 cm**-1
   1:         0.00 cm**-1
   2:         0.00 cm**-1
   3:         0.00 cm**-1
   4:         0.00 cm**-1
   5:         0.00 cm**-1
   6:        19.54 cm**-1
   7:        28.81 cm**-1
   8:        35.91 cm**-1
   9:        52.31 cm**-1
  10:        67.13 cm**-1
  11:        76.77 cm**-1
  12:        87.21 cm**-1
  13:       103.72 cm**-1
  14:       112.04 cm**-1
  15:       125.14 cm**-1
  16:       149.00 cm**-1
  17:       163.60 cm**-1
  18:       167.92 cm**-1
  19:       214.93 cm**-1
  20:       217.71 cm**-1
  21:       255.43 cm**-1
  22:       277.42 cm**-1
  23:       283.75 cm**-1
  24:       337.69 cm**-1
  25:       357.28 cm**-1
  26:       364.16 cm**-1
  27:       383.41 cm**-1
  28:       392.59 cm**-1
  29:       417.09 cm**-1
  30:       433.28 cm**-1
  31:       460.57 cm**-1
  32:       500.13 cm**-1
  33:       518.01 cm**-1
  34:       579.24 cm**-1
  35:       598.32 cm**-1
  36:       612.79 cm**-1
  37:       644.93 cm**-1
  38:       654.13 cm**-1
  39:       699.88 cm**-1
  40:       727.57 cm**-1
  41:       761.48 cm**-1
  42:       775.89 cm**-1
  43:       812.97 cm**-1
  44:       821.67 cm**-1
  45:       836.78 cm**-1
  46:       865.66 cm**-1
  47:       955.19 cm**-1
  48:       962.83 cm**-1
  49:       972.35 cm**-1
  50:       996.77 cm**-1
  51:      1004.41 cm**-1
  52:      1022.16 cm**-1
  53:      1027.48 cm**-1
  54:      1030.20 cm**-1
  55:      1057.60 cm**-1
  56:      1080.78 cm**-1
  57:      1083.43 cm**-1
  58:      1093.66 cm**-1
  59:      1131.10 cm**-1
  60:      1134.76 cm**-1
  61:      1166.39 cm**-1
  62:      1179.03 cm**-1
  63:      1203.11 cm**-1
  64:      1212.34 cm**-1
  65:      1230.87 cm**-1
  66:      1245.48 cm**-1
  67:      1277.59 cm**-1
  68:      1286.54 cm**-1
  69:      1320.88 cm**-1
  70:      1331.56 cm**-1
  71:      1331.97 cm**-1
  72:      1355.19 cm**-1
  73:      1367.97 cm**-1
  74:      1396.30 cm**-1
  75:      1402.52 cm**-1
  76:      1432.09 cm**-1
  77:      1437.64 cm**-1
  78:      1446.71 cm**-1
  79:      1463.45 cm**-1
  80:      1471.70 cm**-1
  81:      1478.83 cm**-1
  82:      1488.98 cm**-1
  83:      1494.19 cm**-1
  84:      1498.78 cm**-1
  85:      1501.01 cm**-1
  86:      1509.34 cm**-1
  87:      1520.05 cm**-1
  88:      1520.71 cm**-1
  89:      1522.60 cm**-1
  90:      1544.55 cm**-1
  91:      1615.00 cm**-1
  92:      1631.83 cm**-1
  93:      1669.22 cm**-1
  94:      1675.20 cm**-1
  95:      3020.76 cm**-1
  96:      3025.65 cm**-1
  97:      3050.34 cm**-1
  98:      3062.93 cm**-1
  99:      3071.21 cm**-1
 100:      3075.06 cm**-1
 101:      3082.93 cm**-1
 102:      3085.03 cm**-1
 103:      3105.33 cm**-1
 104:      3115.05 cm**-1
 105:      3125.96 cm**-1
 106:      3149.30 cm**-1
 107:      3151.14 cm**-1
 108:      3171.12 cm**-1
 109:      3171.85 cm**-1
 110:      3174.59 cm**-1
 111:      3177.46 cm**-1
 112:      3202.16 cm**-1
 113:      3204.02 cm**-1

IR SPECTRUM
-----------

 Mode   freq       eps      Int      T**2         TX        TY        TZ
       cm**-1   L/(mol*cm) km/mol    a.u.
----------------------------------------------------------------------------
  6:     19.54   0.000105    0.53  0.001679  ( 0.028003  0.028646  0.008617)
  7:     28.81   0.000059    0.30  0.000636  (-0.005144 -0.024266 -0.004528)
  8:     35.91   0.000340    1.72  0.002952  (-0.048312 -0.000070 -0.024857)
  9:     52.31   0.000768    3.88  0.004580  ( 0.051398  0.009645 -0.042958)
 10:     67.13   0.001199    6.06  0.005575  ( 0.034993 -0.048152 -0.045076)
 11:     76.77   0.001173    5.93  0.004767  (-0.041580  0.049989  0.023222)
 12:     87.21   0.000071    0.36  0.000255  ( 0.012634  0.004238  0.008774)
 13:    103.72   0.001693    8.56  0.005095  (-0.002969  0.037827 -0.060462)
 14:    112.04   0.001569    7.93  0.004370  ( 0.001066  0.053686 -0.038552)
 15:    125.14   0.000481    2.43  0.001198  (-0.011767  0.031463 -0.008360)
 16:    149.00   0.000617    3.12  0.001292  (-0.008328  0.032828 -0.012032)
 17:    163.60   0.000314    1.59  0.000599  (-0.007688  0.021373  0.009106)
 18:    167.92   0.000010    0.05  0.000019  ( 0.003434 -0.002613 -0.000660)
 19:    214.93   0.000210    1.06  0.000306  (-0.014724  0.005949  0.007308)
 20:    217.71   0.000018    0.09  0.000025  (-0.001881  0.004020  0.002387)
 21:    255.43   0.001497    7.57  0.001829  (-0.026562  0.029901  0.015141)
 22:    277.42   0.002749   13.89  0.003093  ( 0.043656 -0.034109  0.004825)
 23:    283.75   0.000080    0.41  0.000088  (-0.003255  0.008519  0.002304)
 24:    337.69   0.000764    3.86  0.000706  ( 0.000070  0.008128 -0.025296)
 25:    357.28   0.000631    3.19  0.000551  ( 0.016960  0.016111  0.001871)
 26:    364.16   0.002422   12.24  0.002076  ( 0.027907 -0.008596  0.034970)
 27:    383.41   0.001798    9.09  0.001463  (-0.026487 -0.027236  0.004476)
 28:    392.59   0.002968   15.00  0.002359  (-0.023616 -0.026154  0.033431)
 29:    417.09   0.000025    0.12  0.000018  (-0.003818 -0.001128  0.001609)
 30:    433.28   0.000232    1.17  0.000167  (-0.002203  0.011845 -0.004667)
 31:    460.57   0.003150   15.92  0.002134  (-0.043304 -0.014760  0.006399)
 32:    500.13   0.004202   21.23  0.002622  ( 0.026652 -0.042559 -0.010011)
 33:    518.01   0.009221   46.60  0.005555  (-0.003713 -0.017762  0.072288)
 34:    579.24   0.004377   22.12  0.002358  (-0.009698 -0.042309  0.021771)
 35:    598.32   0.000693    3.50  0.000361  ( 0.008349  0.017011 -0.001549)
 36:    612.79   0.003992   20.17  0.002033  (-0.022823 -0.013598  0.036427)
 37:    644.93   0.000027    0.14  0.000013  (-0.001107 -0.002532 -0.002372)
 38:    654.13   0.005636   28.48  0.002689  (-0.042512 -0.009856 -0.028007)
 39:    699.88   0.000399    2.02  0.000178  ( 0.008884 -0.001940  0.009766)
 40:    727.57   0.001530    7.73  0.000656  ( 0.010559  0.013025 -0.019364)
 41:    761.48   0.004423   22.35  0.001812  ( 0.001460 -0.031009  0.029132)
 42:    775.89   0.002516   12.71  0.001012  ( 0.017740 -0.024039 -0.010924)
 43:    812.97   0.008373   42.31  0.003214  ( 0.048105 -0.005155  0.029554)
 44:    821.67   0.007216   36.47  0.002741  (-0.000444  0.024701 -0.046154)
 45:    836.78   0.000066    0.33  0.000025  (-0.000074  0.000516  0.004944)
 46:    865.66   0.005342   27.00  0.001926  ( 0.008239  0.016942 -0.039633)
 47:    955.19   0.000656    3.32  0.000214  (-0.010541  0.003006 -0.009706)
 48:    962.83   0.000270    1.36  0.000087  ( 0.007335 -0.002883  0.005024)
 49:    972.35   0.000001    0.00  0.000000  ( 0.000400  0.000002  0.000380)
 50:    996.77   0.005565   28.12  0.001742  (-0.019637  0.011171 -0.035097)
 51:   1004.41   0.009468   47.85  0.002942  ( 0.040905  0.029449 -0.020027)
 52:   1022.16   0.015890   80.30  0.004851  (-0.069534 -0.002355 -0.003255)
 53:   1027.48   0.010119   51.14  0.003073  ( 0.028231  0.044009  0.018430)
 54:   1030.20   0.005092   25.73  0.001543  ( 0.018128  0.007233 -0.034082)
 55:   1057.60   0.002324   11.74  0.000686  (-0.002354  0.012098 -0.023103)
 56:   1080.78   0.005640   28.50  0.001628  ( 0.040158  0.001457  0.003693)
 57:   1083.43   0.003776   19.08  0.001087  ( 0.022920  0.022717  0.006792)
 58:   1093.66   0.002657   13.43  0.000758  ( 0.012006 -0.005336  0.024196)
 59:   1131.10   0.000485    2.45  0.000134  ( 0.001351  0.011140  0.002801)
 60:   1134.76   0.002557   12.92  0.000703  (-0.009743 -0.010822 -0.022163)
 61:   1166.39   0.015671   79.20  0.004193  (-0.040090  0.025073 -0.044237)
 62:   1179.03   0.000454    2.29  0.000120  ( 0.005512 -0.000075  0.009473)
 63:   1203.11   0.000088    0.45  0.000023  (-0.004572  0.001002 -0.001023)
 64:   1212.34   0.011026   55.72  0.002838  (-0.000686 -0.022195 -0.048426)
 65:   1230.87   0.005522   27.91  0.001400  ( 0.030204  0.020727  0.007624)
 66:   1245.48   0.014477   73.16  0.003627  ( 0.037478  0.046040  0.010154)
 67:   1277.59   0.009519   48.11  0.002325  (-0.009105 -0.022244  0.041802)
 68:   1286.54   0.036783  185.89  0.008922  (-0.022899 -0.087391 -0.027577)
 69:   1320.88   0.000664    3.35  0.000157  ( 0.010161  0.007248 -0.000997)
 70:   1331.56   0.001343    6.79  0.000315  (-0.012896 -0.012180 -0.000056)
 71:   1331.97   0.000993    5.02  0.000233  ( 0.009789  0.011579 -0.001627)
 72:   1355.19   0.001254    6.34  0.000289  (-0.012952 -0.010995 -0.000230)
 73:   1367.97   0.000759    3.84  0.000173  ( 0.007342 -0.001671  0.010793)
 74:   1396.30   0.009505   48.04  0.002124  (-0.041341  0.012318  0.016233)
 75:   1402.52   0.011523   58.23  0.002564  (-0.040493 -0.029259 -0.008255)
 76:   1432.09   0.020180  101.98  0.004397  (-0.015843  0.029810 -0.057076)
 77:   1437.64   0.001917    9.69  0.000416  (-0.002367 -0.018272 -0.008750)
 78:   1446.71   0.013202   66.72  0.002848  ( 0.005104  0.048410 -0.021864)
 79:   1463.45   0.051480  260.16  0.010977  (-0.071009 -0.072562 -0.025883)
 80:   1471.70   0.004449   22.48  0.000943  ( 0.023080 -0.019878 -0.003951)
 81:   1478.83   0.000958    4.84  0.000202  ( 0.013552  0.003322 -0.002720)
 82:   1488.98   0.003131   15.82  0.000656  ( 0.011213  0.007223  0.021868)
 83:   1494.19   0.004657   23.53  0.000973  ( 0.005436 -0.022047 -0.021375)
 84:   1498.78   0.001641    8.30  0.000342  ( 0.010002  0.015547 -0.000088)
 85:   1501.01   0.003446   17.41  0.000716  ( 0.000676  0.026327 -0.004774)
 86:   1509.34   0.003366   17.01  0.000696  ( 0.024075 -0.010644 -0.001764)
 87:   1520.05   0.008165   41.26  0.001676  (-0.040219  0.007190  0.002626)
 88:   1520.71   0.021322  107.75  0.004376  ( 0.066102 -0.000441  0.002407)
 89:   1522.60   0.008710   44.02  0.001785  ( 0.005125  0.013644  0.039658)
 90:   1544.55   0.019298   97.52  0.003899  (-0.006197 -0.040571  0.047059)
 91:   1615.00   0.000205    1.04  0.000040  (-0.001000 -0.005619 -0.002666)
 92:   1631.83   0.000418    2.11  0.000080  ( 0.008838 -0.000582  0.001208)
 93:   1669.22   0.232400  1174.46  0.043448  ( 0.166643  0.054945  0.112512)
 94:   1675.20   0.052680  266.22  0.009814  (-0.072121  0.009489  0.067246)
 95:   3020.76   0.006187   31.27  0.000639  (-0.015036 -0.019743  0.004827)
 96:   3025.65   0.020584  104.02  0.002123  (-0.002287  0.000234  0.046019)
 97:   3050.34   0.000892    4.51  0.000091  (-0.006199  0.007251 -0.000453)
 98:   3062.93   0.002044   10.33  0.000208  ( 0.007445  0.006117  0.010743)
 99:   3071.21   0.004328   21.87  0.000440  (-0.007594  0.009725  0.016958)
100:   3075.06   0.017203   86.94  0.001746  ( 0.022176 -0.000472  0.035408)
101:   3082.93   0.018264   92.30  0.001849  ( 0.034993 -0.024863  0.002457)
102:   3085.03   0.002513   12.70  0.000254  ( 0.012304 -0.010136  0.000337)
103:   3105.33   0.000352    1.78  0.000035  ( 0.001648 -0.005709 -0.000142)
104:   3115.05   0.002825   14.28  0.000283  ( 0.000510  0.003161 -0.016514)
105:   3125.96   0.009536   48.19  0.000952  (-0.001581  0.029915  0.007388)
106:   3149.30   0.002142   10.82  0.000212  (-0.001597  0.013168 -0.006023)
107:   3151.14   0.003910   19.76  0.000387  (-0.017782 -0.007757 -0.003294)
108:   3171.12   0.002928   14.80  0.000288  ( 0.005263 -0.014886 -0.006235)
109:   3171.85   0.002633   13.31  0.000259  ( 0.013819  0.006509  0.005072)
110:   3174.59   0.001465    7.41  0.000144  (-0.004269 -0.009422 -0.006086)
111:   3177.46   0.000619    3.13  0.000061  (-0.007364  0.001088  0.002310)
112:   3202.16   0.001783    9.01  0.000174  (-0.001609  0.011689  0.005876)
113:   3204.02   0.000393    1.99  0.000038  ( 0.001520  0.005559  0.002251)

--------------------------
THERMOCHEMISTRY AT 298.15K
--------------------------

Temperature         ... 298.15 K
Pressure            ... 1.00 atm
Total Mass          ... 327.22 AMU

Throughout the following assumptions are being made:
  (1) The electronic state is orbitally nondegenerate
  (2) There are no thermally accessible electronically excited states
  (3) Hindered rotations indicated by low frequency modes are not
      treated as such but are treated as vibrations and this may
      cause some error
  (4) All equations used are the standard statistical mechanics
      equations for an ideal gas
  (5) All vibrations are strictly harmonic

freq.      19.54  E(vib)   ...       0.57
freq.      28.81  E(vib)   ...       0.55
freq.      35.91  E(vib)   ...       0.54
freq.      52.31  E(vib)   ...       0.52
freq.      67.13  E(vib)   ...       0.50
freq.      76.77  E(vib)   ...       0.49
freq.      87.21  E(vib)   ...       0.48
freq.     103.72  E(vib)   ...       0.46
freq.     112.04  E(vib)   ...       0.45
freq.     125.14  E(vib)   ...       0.43
freq.     149.00  E(vib)   ...       0.40
freq.     163.60  E(vib)   ...       0.39
freq.     167.92  E(vib)   ...       0.38
freq.     214.93  E(vib)   ...       0.34
freq.     217.71  E(vib)   ...       0.33
freq.     255.43  E(vib)   ...       0.30
freq.     277.42  E(vib)   ...       0.28
freq.     283.75  E(vib)   ...       0.28
freq.     337.69  E(vib)   ...       0.24
freq.     357.28  E(vib)   ...       0.22
freq.     364.16  E(vib)   ...       0.22
freq.     383.41  E(vib)   ...       0.20
freq.     392.59  E(vib)   ...       0.20
freq.     417.09  E(vib)   ...       0.18
freq.     433.28  E(vib)   ...       0.17
freq.     460.57  E(vib)   ...       0.16
freq.     500.13  E(vib)   ...       0.14
freq.     518.01  E(vib)   ...       0.13
freq.     579.24  E(vib)   ...       0.11
freq.     598.32  E(vib)   ...       0.10
freq.     612.79  E(vib)   ...       0.10
freq.     644.93  E(vib)   ...       0.09
freq.     654.13  E(vib)   ...       0.08
freq.     699.88  E(vib)   ...       0.07
freq.     727.57  E(vib)   ...       0.06
freq.     761.48  E(vib)   ...       0.06
freq.     775.89  E(vib)   ...       0.05
freq.     812.97  E(vib)   ...       0.05
freq.     821.67  E(vib)   ...       0.05
freq.     836.78  E(vib)   ...       0.04
freq.     865.66  E(vib)   ...       0.04
freq.     955.19  E(vib)   ...       0.03
freq.     962.83  E(vib)   ...       0.03
freq.     972.35  E(vib)   ...       0.03
freq.     996.77  E(vib)   ...       0.02
freq.    1004.41  E(vib)   ...       0.02
freq.    1022.16  E(vib)   ...       0.02
freq.    1027.48  E(vib)   ...       0.02
freq.    1030.20  E(vib)   ...       0.02
freq.    1057.60  E(vib)   ...       0.02
freq.    1080.78  E(vib)   ...       0.02
freq.    1083.43  E(vib)   ...       0.02
freq.    1093.66  E(vib)   ...       0.02
freq.    1131.10  E(vib)   ...       0.01
freq.    1134.76  E(vib)   ...       0.01
freq.    1166.39  E(vib)   ...       0.01
freq.    1179.03  E(vib)   ...       0.01
freq.    1203.11  E(vib)   ...       0.01
freq.    1212.34  E(vib)   ...       0.01
freq.    1230.87  E(vib)   ...       0.01
freq.    1245.48  E(vib)   ...       0.01
freq.    1277.59  E(vib)   ...       0.01
freq.    1286.54  E(vib)   ...       0.01
freq.    1320.88  E(vib)   ...       0.01
freq.    1331.56  E(vib)   ...       0.01
freq.    1331.97  E(vib)   ...       0.01
freq.    1355.19  E(vib)   ...       0.01
freq.    1367.97  E(vib)   ...       0.01
freq.    1396.30  E(vib)   ...       0.00
freq.    1402.52  E(vib)   ...       0.00
freq.    1432.09  E(vib)   ...       0.00
freq.    1437.64  E(vib)   ...       0.00
freq.    1446.71  E(vib)   ...       0.00
freq.    1463.45  E(vib)   ...       0.00
freq.    1471.70  E(vib)   ...       0.00
freq.    1478.83  E(vib)   ...       0.00
freq.    1488.98  E(vib)   ...       0.00
freq.    1494.19  E(vib)   ...       0.00
freq.    1498.78  E(vib)   ...       0.00
freq.    1501.01  E(vib)   ...       0.00
freq.    1509.34  E(vib)   ...       0.00
freq.    1520.05  E(vib)   ...       0.00
freq.    1520.71  E(vib)   ...       0.00
freq.    1522.60  E(vib)   ...       0.00
freq.    1544.55  E(vib)   ...       0.00
freq.    1615.00  E(vib)   ...       0.00
freq.    1631.83  E(vib)   ...       0.00
freq.    1669.22  E(vib)   ...       0.00
freq.    1675.20  E(vib)   ...       0.00
freq.    3020.76  E(vib)   ...       0.00
freq.    3025.65  E(vib)   ...       0.00
freq.    3050.34  E(vib)   ...       0.00
freq.    3062.93  E(vib)   ...       0.00
freq.    3071.21  E(vib)   ...       0.00
freq.    3075.06  E(vib)   ...       0.00
freq.    3082.93  E(vib)   ...       0.00
freq.    3085.03  E(vib)   ...       0.00
freq.    3105.33  E(vib)   ...       0.00
freq.    3115.05  E(vib)   ...       0.00
freq.    3125.96  E(vib)   ...       0.00
freq.    3149.30  E(vib)   ...       0.00
freq.    3151.14  E(vib)   ...       0.00
freq.    3171.12  E(vib)   ...       0.00
freq.    3171.85  E(vib)   ...       0.00
freq.    3174.59  E(vib)   ...       0.00
freq.    3177.46  E(vib)   ...       0.00
freq.    3202.16  E(vib)   ...       0.00
freq.    3204.02  E(vib)   ...       0.00

------------
INNER ENERGY
------------

The inner energy is: U= E(el) + E(ZPE) + E(vib) + E(rot) + E(trans)
    E(el)   - is the total energy from the electronic structure calculation
              = E(kin-el) + E(nuc-el) + E(el-el) + E(nuc-nuc)
    E(ZPE)  - the the zero temperature vibrational energy from the frequency calculation
    E(vib)  - the the finite temperature correction to E(ZPE) due to population
              of excited vibrational states
    E(rot)  - is the rotational thermal energy
    E(trans)- is the translational thermal energy

Summary of contributions to the inner energy U:
Electronic energy                ...  -3378.70560651 Eh
Zero point energy                ...      0.31438267 Eh     197.28 kcal/mol
Thermal vibrational correction   ...      0.01738740 Eh      10.91 kcal/mol
Thermal rotational correction    ...      0.00141627 Eh       0.89 kcal/mol
Thermal translational correction ...      0.00141627 Eh       0.89 kcal/mol
-----------------------------------------------------------------------
Total thermal energy                  -3378.37100390 Eh

Summary of corrections to the electronic energy:
(perhaps to be used in another calculation)
Total thermal correction                  0.02021995 Eh      12.69 kcal/mol
Non-thermal (ZPE) correction              0.31438267 Eh     197.28 kcal/mol
-----------------------------------------------------------------------
Total correction                          0.33460261 Eh     209.97 kcal/mol

--------
ENTHALPY
--------

Rotational constants in cm-1:     0.019320     0.003594     0.003233

                             ****ORCA TERMINATED NORMALLY****
TOTAL RUN TIME: 0 days 1 hours 10 minutes 35 seconds 972 msec
