                         Program Version 5.0.4 -  RELEASE  -
|  1> ! OPT FREQ B3LYP 6-31G(d) D4 AUTOAUX CPCM(water)
|  2>
|  3> %PAL NPROCS 4 END
|  4>
|  5> %maxcore 3375
|  6>
|  7> *xyzfile 0 1 /users/fjb15167/WWenergy/structures/Nq.xyz
|  8>
|  9>                          ****END OF INPUT****
 Total Charge           Charge          ....    0
 Multiplicity           Mult            ....    1
 Number of Electrons    NEL             ....  116
Dispersion correction           -0.054463020
FINAL SINGLE POINT ENERGY      -742.793699398196
Dispersion correction            ... Starting D4
Dispersion correction           -0.053808701
FINAL SINGLE POINT ENERGY      -742.794986794196
Dispersion correction            ... Starting D4
Dispersion correction           -0.054311588
FINAL SINGLE POINT ENERGY      -742.795425069926
Dispersion correction            ... Starting D4
FINAL SINGLE POINT ENERGY      -742.795598592862
FINAL SINGLE POINT ENERGY      -742.795699811352
FINAL SINGLE POINT ENERGY      -742.795797908148
FINAL SINGLE POINT ENERGY      -742.795851770328
FINAL SINGLE POINT ENERGY      -742.795893179095
FINAL SINGLE POINT ENERGY      -742.795908393204
FINAL SINGLE POINT ENERGY      -742.795921677638
Dispersion correction           -0.054543357
FINAL SINGLE POINT ENERGY      -742.795927386235
Dispersion correction            ... Starting D4
Dispersion correction           -0.054532698
FINAL SINGLE POINT ENERGY      -742.795930243253
Dispersion correction            ... Starting D4
                    ***********************HURRAY********************

CARTESIAN COORDINATES (ANGSTROEM)
---------------------------------
  C     -1.097197    2.805912   -0.006108
  H     -1.646132    2.077442    0.599008
  H     -1.667856    2.970803   -0.927862
  H     -1.030203    3.749581    0.537438
  C      0.315855    2.348624   -0.320736
  O      1.284120    3.087975   -0.100541
  N      0.472967    1.096879   -0.850763
  C      1.808816    0.640482   -1.226125
  H      1.836139    0.440455   -2.301722
  H      2.508668    1.445470   -0.999462
  C     -0.647579    0.207229   -1.162073
  H     -1.540260    0.797936   -1.362714
  H     -0.401062   -0.325119   -2.087074
  C     -0.966759   -0.802936   -0.048437
  H     -0.195087   -1.573435    0.023351
  H     -0.999233   -0.281562    0.917190
  C      2.208030   -0.679448   -0.552416
  N      2.421968   -0.680934    0.789375
  O      2.308261   -1.700250   -1.247552
  C      2.240164    0.467206    1.669867
  H      1.275007    0.409619    2.191510
  H      3.037541    0.461958    2.420819
  H      2.286786    1.407760    1.124089
  C      2.670637   -1.946987    1.469602
  H      1.798931   -2.234411    2.073015
  H      2.865779   -2.717734    0.726042
  H      3.535146   -1.844112    2.134728
  C     -2.338328   -1.433215   -0.270739
  O     -3.290843   -0.783839   -0.713659
  N     -2.439536   -2.739336    0.066597
  H     -3.338779   -3.200305    0.005097
  H     -1.661960   -3.256709    0.452256

 Multiplicity           Mult            ....    1
 Number of Electrons    NEL             ....  116
 Basis Dimension        Dim             ....  244

ORBITAL ENERGIES
----------------

  NO   OCC          E(Eh)            E(eV)
   0   2.0000     -19.110153      -520.0137
   1   2.0000     -19.108159      -519.9594
   2   2.0000     -19.107203      -519.9334
   3   2.0000     -14.361969      -390.8090
   4   2.0000     -14.359143      -390.7321
   5   2.0000     -14.341765      -390.2593
   6   2.0000     -10.284859      -279.8652
   7   2.0000     -10.284298      -279.8500
   8   2.0000     -10.279634      -279.7231
   9   2.0000     -10.213035      -277.9108
  10   2.0000     -10.211310      -277.8639
  11   2.0000     -10.198058      -277.5033
  12   2.0000     -10.195558      -277.4352
  13   2.0000     -10.182349      -277.0758
  14   2.0000     -10.173278      -276.8290
  15   2.0000      -1.033007       -28.1096
  16   2.0000      -1.025988       -27.9186
  17   2.0000      -1.025582       -27.9075
  18   2.0000      -0.935440       -25.4546
  19   2.0000      -0.926340       -25.2070
  20   2.0000      -0.897186       -24.4137
  21   2.0000      -0.774456       -21.0740
  22   2.0000      -0.754843       -20.5403
  23   2.0000      -0.718122       -19.5411
  24   2.0000      -0.706097       -19.2139
  25   2.0000      -0.674237       -18.3469
  26   2.0000      -0.660982       -17.9862
  27   2.0000      -0.578950       -15.7540
  28   2.0000      -0.552472       -15.0335
  29   2.0000      -0.539085       -14.6693
  30   2.0000      -0.526330       -14.3222
  31   2.0000      -0.512554       -13.9473
  32   2.0000      -0.487750       -13.2724
  33   2.0000      -0.477525       -12.9941
  34   2.0000      -0.467418       -12.7191
  35   2.0000      -0.464278       -12.6336
  36   2.0000      -0.455584       -12.3971
  37   2.0000      -0.448218       -12.1966
  38   2.0000      -0.431088       -11.7305
  39   2.0000      -0.415621       -11.3096
  40   2.0000      -0.406257       -11.0548
  41   2.0000      -0.403260       -10.9733
  42   2.0000      -0.397245       -10.8096
  43   2.0000      -0.395687       -10.7672
  44   2.0000      -0.393160       -10.6984
  45   2.0000      -0.389968       -10.6116
  46   2.0000      -0.379598       -10.3294
  47   2.0000      -0.373470       -10.1626
  48   2.0000      -0.371513       -10.1094
  49   2.0000      -0.360453        -9.8084
  50   2.0000      -0.348033        -9.4705
  51   2.0000      -0.340816        -9.2741
  52   2.0000      -0.264748        -7.2042
  53   2.0000      -0.261038        -7.1032
  54   2.0000      -0.254020        -6.9122
  55   2.0000      -0.251646        -6.8476
  56   2.0000      -0.237088        -6.4515
  57   2.0000      -0.235283        -6.4024
  58   0.0000       0.015672         0.4265
  59   0.0000       0.026720         0.7271
  60   0.0000       0.030423         0.8279
  61   0.0000       0.082896         2.2557
  62   0.0000       0.105755         2.8777

MULLIKEN ATOMIC CHARGES
-----------------------
   0 C :   -0.564785
   1 H :    0.193606
   2 H :    0.200125
   3 H :    0.181828
   4 C :    0.533091
   5 O :   -0.536679
   6 N :   -0.369859
   7 C :   -0.251669
   8 H :    0.181302
   9 H :    0.206507
  10 C :   -0.171835
  11 H :    0.189262
  12 H :    0.182052
  13 C :   -0.386941
  14 H :    0.184353
  15 H :    0.200478
  16 C :    0.523695
  17 N :   -0.359094
  18 O :   -0.548896
  19 C :   -0.348644
  20 H :    0.173982
  21 H :    0.173909
  22 H :    0.195214
  23 C :   -0.331242
  24 H :    0.172333
  25 H :    0.184561
  26 H :    0.173769
  27 C :    0.552034
  28 O :   -0.541811
  29 N :   -0.740057
  30 H :    0.368713
  31 H :    0.380700
Sum of atomic charges:   -0.0000000

LOEWDIN ATOMIC CHARGES
----------------------
   0 C :   -0.393134
   1 H :    0.153390
   2 H :    0.159355
   3 H :    0.150558
   4 C :    0.116632
   5 O :   -0.338379
   6 N :   -0.067614
   7 C :   -0.178952
   8 H :    0.145649
   9 H :    0.161246
  10 C :   -0.156634
  11 H :    0.148027
  12 H :    0.143214
  13 C :   -0.271007
  14 H :    0.146129
  15 H :    0.157814
  16 C :    0.093896
  17 N :   -0.068195
  18 O :   -0.343116
  19 C :   -0.285787
  20 H :    0.132508
  21 H :    0.137929
  22 H :    0.148749
  23 C :   -0.280052
  24 H :    0.133277
  25 H :    0.147126
  26 H :    0.137063
  27 C :    0.109831
  28 O :   -0.343254
  29 N :   -0.346121
  30 H :    0.272365
  31 H :    0.277487

  Mayer bond orders larger than 0.100000
B(  0-C ,  1-H ) :   0.9206 B(  0-C ,  2-H ) :   0.9193 B(  0-C ,  3-H ) :   0.9379
B(  0-C ,  4-C ) :   0.9940 B(  4-C ,  5-O ) :   1.7427 B(  4-C ,  6-N ) :   1.1638
B(  6-N ,  7-C ) :   0.9514 B(  6-N , 10-C ) :   0.9327 B(  7-C ,  8-H ) :   0.9161
B(  7-C ,  9-H ) :   0.8920 B(  7-C , 16-C ) :   0.9394 B( 10-C , 11-H ) :   0.9078
B( 10-C , 12-H ) :   0.9246 B( 10-C , 13-C ) :   0.9805 B( 13-C , 14-H ) :   0.9130
B( 13-C , 15-H ) :   0.9119 B( 13-C , 27-C ) :   0.9415 B( 16-C , 17-N ) :   1.2006
B( 16-C , 18-O ) :   1.7405 B( 17-N , 18-O ) :   0.1017 B( 17-N , 19-C ) :   0.9496
B( 17-N , 23-C ) :   0.9479 B( 19-C , 20-H ) :   0.9284 B( 19-C , 21-H ) :   0.9341
B( 19-C , 22-H ) :   0.9025 B( 23-C , 24-H ) :   0.9345 B( 23-C , 25-H ) :   0.9254
B( 23-C , 26-H ) :   0.9365 B( 27-C , 28-O ) :   1.8054 B( 27-C , 29-N ) :   1.1937
B( 29-N , 30-H ) :   0.8135 B( 29-N , 31-H ) :   0.8083

Dispersion correction           -0.054508772
FINAL SINGLE POINT ENERGY      -742.795932265487

DIPOLE MOMENT
-------------
                                X             Y             Z
Electronic contribution:     -1.48349      -0.34261      -5.76295
Nuclear contribution   :      1.17926      -1.18103       7.58680
                        -----------------------------------------
Total Dipole Moment    :     -0.30423      -1.52363       1.82385
                        -----------------------------------------
Magnitude (a.u.)       :      2.39592
Magnitude (Debye)      :      6.08994

Dispersion correction in the Hessian             ... Starting D4

VIBRATIONAL FREQUENCIES
-----------------------

Scaling factor for frequencies =  1.000000000  (already applied!)

   0:         0.00 cm**-1
   1:         0.00 cm**-1
   2:         0.00 cm**-1
   3:         0.00 cm**-1
   4:         0.00 cm**-1
   5:         0.00 cm**-1
   6:        29.75 cm**-1
   7:        36.31 cm**-1
   8:        46.00 cm**-1
   9:        62.39 cm**-1
  10:        70.99 cm**-1
  11:        73.89 cm**-1
  12:        99.31 cm**-1
  13:       111.87 cm**-1
  14:       132.94 cm**-1
  15:       162.09 cm**-1
  16:       184.76 cm**-1
  17:       199.85 cm**-1
  18:       205.27 cm**-1
  19:       230.95 cm**-1
  20:       260.62 cm**-1
  21:       278.40 cm**-1
  22:       347.16 cm**-1
  23:       358.07 cm**-1
  24:       388.73 cm**-1
  25:       429.49 cm**-1
  26:       448.28 cm**-1
  27:       461.85 cm**-1
  28:       500.08 cm**-1
  29:       544.17 cm**-1
  30:       575.50 cm**-1
  31:       590.82 cm**-1
  32:       605.68 cm**-1
  33:       643.26 cm**-1
  34:       684.39 cm**-1
  35:       711.95 cm**-1
  36:       761.70 cm**-1
  37:       781.60 cm**-1
  38:       826.13 cm**-1
  39:       908.53 cm**-1
  40:       960.34 cm**-1
  41:      1002.64 cm**-1
  42:      1014.38 cm**-1
  43:      1040.59 cm**-1
  44:      1055.28 cm**-1
  45:      1062.66 cm**-1
  46:      1089.45 cm**-1
  47:      1100.55 cm**-1
  48:      1127.16 cm**-1
  49:      1135.47 cm**-1
  50:      1175.43 cm**-1
  51:      1184.54 cm**-1
  52:      1224.55 cm**-1
  53:      1254.15 cm**-1
  54:      1286.85 cm**-1
  55:      1289.06 cm**-1
  56:      1304.42 cm**-1
  57:      1331.72 cm**-1
  58:      1369.67 cm**-1
  59:      1401.90 cm**-1
  60:      1412.84 cm**-1
  61:      1434.44 cm**-1
  62:      1439.74 cm**-1
  63:      1456.49 cm**-1
  64:      1474.44 cm**-1
  65:      1482.78 cm**-1
  66:      1487.96 cm**-1
  67:      1491.51 cm**-1
  68:      1503.14 cm**-1
  69:      1505.74 cm**-1
  70:      1509.77 cm**-1
  71:      1517.33 cm**-1
  72:      1529.46 cm**-1
  73:      1532.90 cm**-1
  74:      1554.50 cm**-1
  75:      1636.66 cm**-1
  76:      1703.74 cm**-1
  77:      1708.56 cm**-1
  78:      1741.96 cm**-1
  79:      3035.13 cm**-1
  80:      3040.60 cm**-1
  81:      3062.10 cm**-1
  82:      3063.23 cm**-1
  83:      3083.46 cm**-1
  84:      3086.97 cm**-1
  85:      3098.94 cm**-1
  86:      3100.99 cm**-1
  87:      3127.63 cm**-1
  88:      3133.35 cm**-1
  89:      3162.10 cm**-1
  90:      3169.60 cm**-1
  91:      3175.38 cm**-1
  92:      3192.34 cm**-1
  93:      3193.76 cm**-1
  94:      3574.63 cm**-1
  95:      3699.34 cm**-1

IR SPECTRUM
-----------

 Mode   freq       eps      Int      T**2         TX        TY        TZ
       cm**-1   L/(mol*cm) km/mol    a.u.
----------------------------------------------------------------------------
  6:     29.75   0.004540   22.94  0.047615  ( 0.012921 -0.096347 -0.195360)
  7:     36.31   0.001029    5.20  0.008842  (-0.062640 -0.058812  0.038202)
  8:     46.00   0.000071    0.36  0.000479  ( 0.020778  0.003920  0.005614)
  9:     62.39   0.001398    7.07  0.006993  (-0.070599  0.012764  0.042968)
 10:     70.99   0.001296    6.55  0.005695  ( 0.072377 -0.008234 -0.019727)
 11:     73.89   0.000216    1.09  0.000911  (-0.021395  0.008131  0.019670)
 12:     99.31   0.000592    2.99  0.001859  (-0.000293  0.034992 -0.025188)
 13:    111.87   0.003088   15.60  0.008613  ( 0.000940 -0.056756  0.073424)
 14:    132.94   0.001436    7.26  0.003370  (-0.052177  0.017685 -0.018301)
 15:    162.09   0.000605    3.06  0.001165  (-0.029666 -0.014024 -0.009417)
 16:    184.76   0.000257    1.30  0.000434  (-0.017352 -0.005954  0.009856)
 17:    199.85   0.000500    2.53  0.000781  (-0.017886 -0.011555 -0.018106)
 18:    205.27   0.066969  338.43  0.101808  ( 0.078092 -0.115597 -0.286962)
 19:    230.95   0.000502    2.54  0.000679  (-0.012874  0.022270  0.004113)
 20:    260.62   0.004145   20.95  0.004963  (-0.069776 -0.009630  0.001412)
 21:    278.40   0.000574    2.90  0.000644  ( 0.006927 -0.004468  0.023993)
 22:    347.16   0.002800   14.15  0.002517  ( 0.007472  0.004794 -0.049378)
 23:    358.07   0.000608    3.07  0.000530  ( 0.003208 -0.022763 -0.001222)
 24:    388.73   0.002708   13.68  0.002174  (-0.003670  0.022971 -0.040406)
 25:    429.49   0.000151    0.77  0.000110  ( 0.000453  0.009752 -0.003831)
 26:    448.28   0.003028   15.30  0.002108  (-0.043475 -0.004158 -0.014161)
 27:    461.85   0.002813   14.22  0.001901  (-0.000856  0.043087 -0.006602)
 28:    500.08   0.004184   21.14  0.002611  (-0.048759  0.005269  0.014338)
 29:    544.17   0.003439   17.38  0.001972  (-0.019609 -0.032538  0.022993)
 30:    575.50   0.005851   29.57  0.003173  (-0.000593  0.055960 -0.006383)
 31:    590.82   0.003854   19.47  0.002035  ( 0.019132  0.030430  0.027265)
 32:    605.68   0.002780   14.05  0.001432  (-0.004759  0.008937 -0.036464)
 33:    643.26   0.001794    9.07  0.000871  (-0.009806 -0.001896  0.027763)
 34:    684.39   0.002178   11.00  0.000993  (-0.000686  0.007691  0.030550)
 35:    711.95   0.000589    2.98  0.000258  ( 0.008994  0.010953  0.007577)
 36:    761.70   0.002415   12.20  0.000989  (-0.011078  0.006232 -0.028770)
 37:    781.60   0.003117   15.75  0.001244  (-0.031070  0.014615 -0.008096)
 38:    826.13   0.003060   15.46  0.001156  ( 0.005356  0.010873  0.031764)
 39:    908.53   0.003317   16.76  0.001139  (-0.001849 -0.022582 -0.025017)
 40:    960.34   0.001939    9.80  0.000630  (-0.007868 -0.019361 -0.013909)
 41:   1002.64   0.006757   34.15  0.002103  (-0.007469  0.011649 -0.043723)
 42:   1014.38   0.007915   40.00  0.002435  (-0.012257 -0.047207  0.007510)
 43:   1040.59   0.007347   37.13  0.002203  ( 0.025607 -0.036134 -0.015555)
 44:   1055.28   0.003002   15.17  0.000888  ( 0.008895  0.022330 -0.017605)
 45:   1062.66   0.002040   10.31  0.000599  ( 0.002547 -0.005805  0.023638)
 46:   1089.45   0.002731   13.80  0.000782  ( 0.001080  0.026853  0.007755)
 47:   1100.55   0.003798   19.19  0.001077  ( 0.008861  0.011206  0.029544)
 48:   1127.16   0.002931   14.81  0.000812  (-0.013823  0.004911 -0.024420)
 49:   1135.47   0.000634    3.21  0.000174  (-0.007457  0.010795  0.001474)
 50:   1175.43   0.012805   64.71  0.003399  (-0.018257 -0.013745 -0.053640)
 51:   1184.54   0.000062    0.31  0.000016  ( 0.001834  0.001495  0.003267)
 52:   1224.55   0.008094   40.90  0.002063  ( 0.018317  0.001076 -0.041545)
 53:   1254.15   0.016031   81.02  0.003989  ( 0.006109 -0.060451 -0.017244)
 54:   1286.85   0.009526   48.14  0.002310  ( 0.008194  0.021475 -0.042212)
 55:   1289.06   0.024640  124.52  0.005965  ( 0.042088 -0.063777 -0.011230)
 56:   1304.42   0.015889   80.30  0.003801  (-0.018596  0.058782 -0.000198)
 57:   1331.72   0.027058  136.74  0.006341  ( 0.029409  0.073201 -0.010830)
 58:   1369.67   0.002729   13.79  0.000622  ( 0.008008  0.022623  0.006775)
 59:   1401.90   0.000964    4.87  0.000215  (-0.006718  0.010353 -0.007894)
 60:   1412.84   0.005295   26.76  0.001170  ( 0.030099  0.012754 -0.010045)
 61:   1434.44   0.039214  198.17  0.008531  ( 0.052694  0.074246  0.015553)
 62:   1439.74   0.013089   66.14  0.002837  ( 0.002427 -0.016537  0.050573)
 63:   1456.49   0.017828   90.10  0.003820  (-0.022047  0.036347 -0.044862)
 64:   1474.44   0.040717  205.77  0.008618  (-0.008821  0.085738  0.034481)
 65:   1482.78   0.000780    3.94  0.000164  (-0.012438 -0.003055 -0.000487)
 66:   1487.96   0.002266   11.45  0.000475  (-0.015909  0.006806 -0.013258)
 67:   1491.51   0.007822   39.53  0.001637  (-0.038646  0.011932  0.000845)
 68:   1503.14   0.005848   29.55  0.001214  (-0.026514  0.020781  0.008900)
 69:   1505.74   0.005213   26.34  0.001080  ( 0.010967 -0.009064 -0.029630)
 70:   1509.77   0.000854    4.32  0.000177  (-0.002737 -0.012997  0.000392)
 71:   1517.33   0.002336   11.80  0.000480  ( 0.017949  0.000386  0.012573)
 72:   1529.46   0.007326   37.02  0.001495  ( 0.034938  0.016196  0.003432)
 73:   1532.90   0.003855   19.48  0.000785  (-0.008075  0.002234  0.026732)
 74:   1554.50   0.017384   87.85  0.003490  ( 0.010732 -0.029530  0.050026)
 75:   1636.66   0.034732  175.52  0.006622  ( 0.032105  0.073375 -0.014413)
 76:   1703.74   0.170518  861.73  0.031233  (-0.075812 -0.127885 -0.095553)
 77:   1708.56   0.059754  301.97  0.010914  ( 0.042794 -0.029832 -0.090513)
 78:   1741.96   0.114907  580.69  0.020585  (-0.073922  0.112075 -0.050594)
 79:   3035.13   0.005985   30.25  0.000615  ( 0.007429 -0.020347 -0.012091)
 80:   3040.60   0.018458   93.28  0.001894  (-0.009990 -0.011313  0.040823)
 81:   3062.10   0.000536    2.71  0.000055  ( 0.003708 -0.001593  0.006194)
 82:   3063.23   0.000715    3.61  0.000073  (-0.006974 -0.000214  0.004919)
 83:   3083.46   0.003790   19.15  0.000384  (-0.007132 -0.003392 -0.017922)
 84:   3086.97   0.011151   56.35  0.001127  (-0.008944  0.010323  0.030671)
 85:   3098.94   0.018362   92.79  0.001849  ( 0.040666  0.003027  0.013644)
 86:   3100.99   0.000083    0.42  0.000008  ( 0.001359  0.000003 -0.002543)
 87:   3127.63   0.001671    8.44  0.000167  (-0.003043 -0.003556  0.012033)
 88:   3133.35   0.003024   15.28  0.000301  (-0.009056  0.014805  0.000093)
 89:   3162.10   0.001824    9.22  0.000180  (-0.006595  0.009242 -0.007147)
 90:   3169.60   0.004514   22.81  0.000444  ( 0.001981 -0.020374 -0.005041)
 91:   3175.38   0.001121    5.67  0.000110  ( 0.009211 -0.003853  0.003242)
 92:   3192.34   0.001117    5.65  0.000109  ( 0.008069 -0.006555 -0.001070)
 93:   3193.76   0.000522    2.64  0.000051  (-0.002943 -0.005946 -0.002639)
 94:   3574.63   0.017170   86.77  0.001499  ( 0.005520  0.036723 -0.010950)
 95:   3699.34   0.015907   80.39  0.001342  ( 0.034473 -0.005893  0.010895)

--------------------------
THERMOCHEMISTRY AT 298.15K
--------------------------

Temperature         ... 298.15 K
Pressure            ... 1.00 atm
Total Mass          ... 215.25 AMU

Throughout the following assumptions are being made:
  (1) The electronic state is orbitally nondegenerate
  (2) There are no thermally accessible electronically excited states
  (3) Hindered rotations indicated by low frequency modes are not
      treated as such but are treated as vibrations and this may
      cause some error
  (4) All equations used are the standard statistical mechanics
      equations for an ideal gas
  (5) All vibrations are strictly harmonic

freq.      29.75  E(vib)   ...       0.55
freq.      36.31  E(vib)   ...       0.54
freq.      46.00  E(vib)   ...       0.53
freq.      62.39  E(vib)   ...       0.51
freq.      70.99  E(vib)   ...       0.50
freq.      73.89  E(vib)   ...       0.49
freq.      99.31  E(vib)   ...       0.46
freq.     111.87  E(vib)   ...       0.45
freq.     132.94  E(vib)   ...       0.42
freq.     162.09  E(vib)   ...       0.39
freq.     184.76  E(vib)   ...       0.37
freq.     199.85  E(vib)   ...       0.35
freq.     205.27  E(vib)   ...       0.35
freq.     230.95  E(vib)   ...       0.32
freq.     260.62  E(vib)   ...       0.30
freq.     278.40  E(vib)   ...       0.28
freq.     347.16  E(vib)   ...       0.23
freq.     358.07  E(vib)   ...       0.22
freq.     388.73  E(vib)   ...       0.20
freq.     429.49  E(vib)   ...       0.18
freq.     448.28  E(vib)   ...       0.17
freq.     461.85  E(vib)   ...       0.16
freq.     500.08  E(vib)   ...       0.14
freq.     544.17  E(vib)   ...       0.12
freq.     575.50  E(vib)   ...       0.11
freq.     590.82  E(vib)   ...       0.10
freq.     605.68  E(vib)   ...       0.10
freq.     643.26  E(vib)   ...       0.09
freq.     684.39  E(vib)   ...       0.07
freq.     711.95  E(vib)   ...       0.07
freq.     761.70  E(vib)   ...       0.06
freq.     781.60  E(vib)   ...       0.05
freq.     826.13  E(vib)   ...       0.04
freq.     908.53  E(vib)   ...       0.03
freq.     960.34  E(vib)   ...       0.03
freq.    1002.64  E(vib)   ...       0.02
freq.    1014.38  E(vib)   ...       0.02
freq.    1040.59  E(vib)   ...       0.02
freq.    1055.28  E(vib)   ...       0.02
freq.    1062.66  E(vib)   ...       0.02
freq.    1089.45  E(vib)   ...       0.02
freq.    1100.55  E(vib)   ...       0.02
freq.    1127.16  E(vib)   ...       0.01
freq.    1135.47  E(vib)   ...       0.01
freq.    1175.43  E(vib)   ...       0.01
freq.    1184.54  E(vib)   ...       0.01
freq.    1224.55  E(vib)   ...       0.01
freq.    1254.15  E(vib)   ...       0.01
freq.    1286.85  E(vib)   ...       0.01
freq.    1289.06  E(vib)   ...       0.01
freq.    1304.42  E(vib)   ...       0.01
freq.    1331.72  E(vib)   ...       0.01
freq.    1369.67  E(vib)   ...       0.01
freq.    1401.90  E(vib)   ...       0.00
freq.    1412.84  E(vib)   ...       0.00
freq.    1434.44  E(vib)   ...       0.00
freq.    1439.74  E(vib)   ...       0.00
freq.    1456.49  E(vib)   ...       0.00
freq.    1474.44  E(vib)   ...       0.00
freq.    1482.78  E(vib)   ...       0.00
freq.    1487.96  E(vib)   ...       0.00
freq.    1491.51  E(vib)   ...       0.00
freq.    1503.14  E(vib)   ...       0.00
freq.    1505.74  E(vib)   ...       0.00
freq.    1509.77  E(vib)   ...       0.00
freq.    1517.33  E(vib)   ...       0.00
freq.    1529.46  E(vib)   ...       0.00
freq.    1532.90  E(vib)   ...       0.00
freq.    1554.50  E(vib)   ...       0.00
freq.    1636.66  E(vib)   ...       0.00
freq.    1703.74  E(vib)   ...       0.00
freq.    1708.56  E(vib)   ...       0.00
freq.    1741.96  E(vib)   ...       0.00
freq.    3035.13  E(vib)   ...       0.00
freq.    3040.60  E(vib)   ...       0.00
freq.    3062.10  E(vib)   ...       0.00
freq.    3063.23  E(vib)   ...       0.00
freq.    3083.46  E(vib)   ...       0.00
freq.    3086.97  E(vib)   ...       0.00
freq.    3098.94  E(vib)   ...       0.00
freq.    3100.99  E(vib)   ...       0.00
freq.    3127.63  E(vib)   ...       0.00
freq.    3133.35  E(vib)   ...       0.00
freq.    3162.10  E(vib)   ...       0.00
freq.    3169.60  E(vib)   ...       0.00
freq.    3175.38  E(vib)   ...       0.00
freq.    3192.34  E(vib)   ...       0.00
freq.    3193.76  E(vib)   ...       0.00
freq.    3574.63  E(vib)   ...       0.00
freq.    3699.34  E(vib)   ...       0.00

------------
INNER ENERGY
------------

The inner energy is: U= E(el) + E(ZPE) + E(vib) + E(rot) + E(trans)
    E(el)   - is the total energy from the electronic structure calculation
              = E(kin-el) + E(nuc-el) + E(el-el) + E(nuc-nuc)
    E(ZPE)  - the the zero temperature vibrational energy from the frequency calculation
    E(vib)  - the the finite temperature correction to E(ZPE) due to population
              of excited vibrational states
    E(rot)  - is the rotational thermal energy
    E(trans)- is the translational thermal energy

Summary of contributions to the inner energy U:
Electronic energy                ...   -742.79593227 Eh
Zero point energy                ...      0.27175593 Eh     170.53 kcal/mol
Thermal vibrational correction   ...      0.01477374 Eh       9.27 kcal/mol
Thermal rotational correction    ...      0.00141627 Eh       0.89 kcal/mol
Thermal translational correction ...      0.00141627 Eh       0.89 kcal/mol
-----------------------------------------------------------------------
Total thermal energy                   -742.50657005 Eh

Summary of corrections to the electronic energy:
(perhaps to be used in another calculation)
Total thermal correction                  0.01760629 Eh      11.05 kcal/mol
Non-thermal (ZPE) correction              0.27175593 Eh     170.53 kcal/mol
-----------------------------------------------------------------------
Total correction                          0.28936222 Eh     181.58 kcal/mol

--------
ENTHALPY
--------

The enthalpy is H = U + kB*T
                kB is Boltzmann's constant
Total free energy                 ...   -742.50657005 Eh
Thermal Enthalpy correction       ...      0.00094421 Eh       0.59 kcal/mol
-----------------------------------------------------------------------
Total Enthalpy                    ...   -742.50562584 Eh

Note: Only C1 symmetry has been detected, increase convergence thresholds
      if your molecule has a higher symmetry. Symmetry factor of 1.0 is
      used for the rotational entropy correction.

Note: Rotational entropy computed according to Herzberg
Infrared and Raman Spectra, Chapter V,1, Van Nostrand Reinhold, 1945
Point Group:  C1, Symmetry Number:   1
Rotational constants in cm-1:     0.020992     0.016025     0.011016

                             ****ORCA TERMINATED NORMALLY****
TOTAL RUN TIME: 0 days 0 hours 28 minutes 26 seconds 341 msec
