                         Program Version 5.0.4 -  RELEASE  -
|  1> ! OPT FREQ B3LYP 6-31G(d) D4 AUTOAUX
|  2>
|  3> %PAL NPROCS 4 END
|  4>
|  5> %maxcore 3375
|  6>
|  7> *xyzfile 0 1 /users/fjb15167/WWenergy/structures/Nm.xyz
|  8>
|  9>                          ****END OF INPUT****
 Total Charge           Charge          ....    0
 Multiplicity           Mult            ....    1
 Number of Electrons    NEL             ....  118
Dispersion correction           -0.057381321
FINAL SINGLE POINT ENERGY     -1011.563294156721
Dispersion correction            ... Starting D4
Dispersion correction           -0.056674754
FINAL SINGLE POINT ENERGY     -1011.563973575731
Dispersion correction            ... Starting D4
Dispersion correction           -0.056928293
FINAL SINGLE POINT ENERGY     -1011.564117301424
Dispersion correction            ... Starting D4
FINAL SINGLE POINT ENERGY     -1011.564182723117
FINAL SINGLE POINT ENERGY     -1011.564204194134
FINAL SINGLE POINT ENERGY     -1011.564223887736
FINAL SINGLE POINT ENERGY     -1011.564234385000
FINAL SINGLE POINT ENERGY     -1011.564241156330
FINAL SINGLE POINT ENERGY     -1011.564249744273
Dispersion correction           -0.056909987
FINAL SINGLE POINT ENERGY     -1011.564254074326
Dispersion correction            ... Starting D4
Dispersion correction           -0.056897476
FINAL SINGLE POINT ENERGY     -1011.564258748164
Dispersion correction            ... Starting D4
                    ***********************HURRAY********************

CARTESIAN COORDINATES (ANGSTROEM)
---------------------------------
  C     -1.413081    3.073630   -0.542002
  H     -0.657229    2.946849   -1.323921
  H     -0.997101    3.749074    0.214676
  H     -2.301789    3.533401   -0.975732
  C     -1.839414    1.750692    0.075551
  O     -3.020867    1.406841    0.078649
  N     -0.855577    0.972610    0.637223
  C     -1.234431   -0.246714    1.350939
  H     -0.887827   -0.181146    2.387162
  H     -2.322320   -0.306740    1.342648
  C      0.574529    1.286263    0.591621
  H      0.732678    2.363385    0.688111
  H      1.029724    0.814085    1.465859
  C      1.259313    0.770823   -0.683575
  H      0.986462   -0.270489   -0.872108
  H      0.943779    1.355359   -1.554083
  C     -0.545370   -1.492307    0.777750
  N     -1.043286   -2.043030   -0.368568
  O      0.455526   -1.933668    1.346448
  C     -2.141173   -1.510850   -1.163565
  H     -1.767661   -1.162183   -2.137132
  H     -2.877940   -2.302676   -1.350652
  H     -2.642204   -0.676427   -0.674495
  C     -0.354594   -3.187355   -0.948788
  H      0.141295   -2.906181   -1.888691
  H      0.390388   -3.543914   -0.238866
  H     -1.076096   -3.984489   -1.165427
  S      3.081905    0.903071   -0.626660
  C      3.448158   -0.369821    0.640302
  H      2.833108   -1.259425    0.480670
  H      4.504447   -0.630948    0.533240
  H      3.277647    0.001280    1.654415

 Multiplicity           Mult            ....    1
 Number of Electrons    NEL             ....  118
 Basis Dimension        Dim             ....  236

ORBITAL ENERGIES
----------------

  NO   OCC          E(Eh)            E(eV)
   0   2.0000     -88.847994     -2417.6768
   1   2.0000     -19.111964      -520.0630
   2   2.0000     -19.109651      -520.0000
   3   2.0000     -14.367273      -390.9534
   4   2.0000     -14.365571      -390.9071
   5   2.0000     -10.288079      -279.9529
   6   2.0000     -10.282967      -279.8138
   7   2.0000     -10.224643      -278.2267
   8   2.0000     -10.218125      -278.0493
   9   2.0000     -10.209684      -277.8196
  10   2.0000     -10.209458      -277.8135
  11   2.0000     -10.206720      -277.7390
  12   2.0000     -10.191147      -277.3152
  13   2.0000     -10.186631      -277.1923
  14   2.0000      -7.923946      -215.6215
  15   2.0000      -5.888459      -160.2331
  16   2.0000      -5.884666      -160.1299
  17   2.0000      -5.877636      -159.9386
  18   2.0000      -1.038019       -28.2459
  19   2.0000      -1.030635       -28.0450
  20   2.0000      -0.940484       -25.5919
  21   2.0000      -0.933989       -25.4151
  22   2.0000      -0.805857       -21.9285
  23   2.0000      -0.766292       -20.8519
  24   2.0000      -0.739189       -20.1144
  25   2.0000      -0.725702       -19.7473
  26   2.0000      -0.713718       -19.4212
  27   2.0000      -0.679467       -18.4892
  28   2.0000      -0.665458       -18.1080
  29   2.0000      -0.590403       -16.0657
  30   2.0000      -0.559988       -15.2380
  31   2.0000      -0.544494       -14.8164
  32   2.0000      -0.519577       -14.1384
  33   2.0000      -0.493912       -13.4400
  34   2.0000      -0.487474       -13.2649
  35   2.0000      -0.473492       -12.8844
  36   2.0000      -0.462560       -12.5869
  37   2.0000      -0.456985       -12.4352
  38   2.0000      -0.451885       -12.2964
  39   2.0000      -0.429477       -11.6867
  40   2.0000      -0.419382       -11.4120
  41   2.0000      -0.416457       -11.3324
  42   2.0000      -0.410616       -11.1734
  43   2.0000      -0.404891       -11.0176
  44   2.0000      -0.403322       -10.9750
  45   2.0000      -0.402207       -10.9446
  46   2.0000      -0.394146       -10.7253
  47   2.0000      -0.392448       -10.6790
  48   2.0000      -0.382847       -10.4178
  49   2.0000      -0.377949       -10.2845
  50   2.0000      -0.362795        -9.8722
  51   2.0000      -0.356558        -9.7024
  52   2.0000      -0.352004        -9.5785
  53   2.0000      -0.308048        -8.3824
  54   2.0000      -0.261996        -7.1293
  55   2.0000      -0.253818        -6.9067
  56   2.0000      -0.243196        -6.6177
  57   2.0000      -0.240841        -6.5536
  58   2.0000      -0.217337        -5.9140
  59   0.0000       0.008576         0.2334
  60   0.0000       0.023530         0.6403
  61   0.0000       0.047025         1.2796
  62   0.0000       0.071758         1.9526
  63   0.0000       0.081417         2.2155

MULLIKEN ATOMIC CHARGES
-----------------------
   0 C :   -0.551203
   1 H :    0.170292
   2 H :    0.177521
   3 H :    0.190062
   4 C :    0.524839
   5 O :   -0.475087
   6 N :   -0.379019
   7 C :   -0.244227
   8 H :    0.175387
   9 H :    0.202279
  10 C :   -0.154740
  11 H :    0.166854
  12 H :    0.182225
  13 C :   -0.427280
  14 H :    0.191291
  15 H :    0.171508
  16 C :    0.514716
  17 N :   -0.364491
  18 O :   -0.487086
  19 C :   -0.350724
  20 H :    0.152248
  21 H :    0.156929
  22 H :    0.217759
  23 C :   -0.324665
  24 H :    0.153361
  25 H :    0.201832
  26 H :    0.155551
  27 S :    0.080081
  28 C :   -0.591898
  29 H :    0.205457
  30 H :    0.179569
  31 H :    0.180657
Sum of atomic charges:   -0.0000000

LOEWDIN ATOMIC CHARGES
----------------------
   0 C :   -0.389199
   1 H :    0.141425
   2 H :    0.146991
   3 H :    0.154216
   4 C :    0.109854
   5 O :   -0.286066
   6 N :   -0.079233
   7 C :   -0.178066
   8 H :    0.142016
   9 H :    0.158210
  10 C :   -0.167811
  11 H :    0.136725
  12 H :    0.143211
  13 C :   -0.345776
  14 H :    0.141042
  15 H :    0.137973
  16 C :    0.091695
  17 N :   -0.078865
  18 O :   -0.293749
  19 C :   -0.287550
  20 H :    0.123348
  21 H :    0.127106
  22 H :    0.157802
  23 C :   -0.279438
  24 H :    0.123235
  25 H :    0.155317
  26 H :    0.127403
  27 S :    0.106674
  28 C :   -0.469239
  29 H :    0.150110
  30 H :    0.146267
  31 H :    0.134373

  Mayer bond orders larger than 0.100000
B(  0-C ,  1-H ) :   0.9258 B(  0-C ,  2-H ) :   0.9286 B(  0-C ,  3-H ) :   0.9395
B(  0-C ,  4-C ) :   0.9808 B(  4-C ,  5-O ) :   1.7913 B(  4-C ,  6-N ) :   1.1300
B(  6-N ,  7-C ) :   0.9542 B(  6-N , 10-C ) :   0.9275 B(  7-C ,  8-H ) :   0.9194
B(  7-C ,  9-H ) :   0.8949 B(  7-C , 16-C ) :   0.9303 B( 10-C , 11-H ) :   0.9271
B( 10-C , 12-H ) :   0.9216 B( 10-C , 13-C ) :   0.9687 B( 13-C , 14-H ) :   0.9130
B( 13-C , 15-H ) :   0.9271 B( 13-C , 27-S ) :   0.9939 B( 16-C , 17-N ) :   1.1626
B( 16-C , 18-O ) :   1.7696 B( 17-N , 18-O ) :   0.1008 B( 17-N , 19-C ) :   0.9538
B( 17-N , 23-C ) :   0.9538 B( 19-C , 20-H ) :   0.9361 B( 19-C , 21-H ) :   0.9368
B( 19-C , 22-H ) :   0.8897 B( 23-C , 24-H ) :   0.9380 B( 23-C , 25-H ) :   0.9196
B( 23-C , 26-H ) :   0.9406 B( 27-S , 28-C ) :   0.9883 B( 28-C , 29-H ) :   0.9153
B( 28-C , 30-H ) :   0.9391 B( 28-C , 31-H ) :   0.9343

Dispersion correction           -0.056897355
FINAL SINGLE POINT ENERGY     -1011.564261632806

DIPOLE MOMENT
-------------
                                X             Y             Z
Electronic contribution:      0.96222       2.57486       3.06782
Nuclear contribution   :     -1.05586      -2.65404      -3.48848
                        -----------------------------------------
Total Dipole Moment    :     -0.09363      -0.07918      -0.42066
                        -----------------------------------------
Magnitude (a.u.)       :      0.43817
Magnitude (Debye)      :      1.11373

Dispersion correction in the Hessian             ... Starting D4

VIBRATIONAL FREQUENCIES
-----------------------

Scaling factor for frequencies =  1.000000000  (already applied!)

   0:         0.00 cm**-1
   1:         0.00 cm**-1
   2:         0.00 cm**-1
   3:         0.00 cm**-1
   4:         0.00 cm**-1
   5:         0.00 cm**-1
   6:        29.49 cm**-1
   7:        44.82 cm**-1
   8:        59.90 cm**-1
   9:        73.27 cm**-1
  10:        84.72 cm**-1
  11:        99.96 cm**-1
  12:       108.84 cm**-1
  13:       122.95 cm**-1
  14:       137.03 cm**-1
  15:       142.70 cm**-1
  16:       154.53 cm**-1
  17:       167.68 cm**-1
  18:       205.22 cm**-1
  19:       226.64 cm**-1
  20:       259.57 cm**-1
  21:       282.51 cm**-1
  22:       318.24 cm**-1
  23:       351.95 cm**-1
  24:       376.18 cm**-1
  25:       384.96 cm**-1
  26:       429.88 cm**-1
  27:       468.47 cm**-1
  28:       486.03 cm**-1
  29:       581.28 cm**-1
  30:       595.62 cm**-1
  31:       625.66 cm**-1
  32:       689.80 cm**-1
  33:       699.26 cm**-1
  34:       742.51 cm**-1
  35:       761.19 cm**-1
  36:       788.79 cm**-1
  37:       833.63 cm**-1
  38:       957.31 cm**-1
  39:       968.97 cm**-1
  40:       990.89 cm**-1
  41:      1004.77 cm**-1
  42:      1010.25 cm**-1
  43:      1034.78 cm**-1
  44:      1049.52 cm**-1
  45:      1063.23 cm**-1
  46:      1094.91 cm**-1
  47:      1103.08 cm**-1
  48:      1141.24 cm**-1
  49:      1167.71 cm**-1
  50:      1190.04 cm**-1
  51:      1222.27 cm**-1
  52:      1251.71 cm**-1
  53:      1286.40 cm**-1
  54:      1289.49 cm**-1
  55:      1298.57 cm**-1
  56:      1343.25 cm**-1
  57:      1375.15 cm**-1
  58:      1399.35 cm**-1
  59:      1405.53 cm**-1
  60:      1420.82 cm**-1
  61:      1448.77 cm**-1
  62:      1462.01 cm**-1
  63:      1473.06 cm**-1
  64:      1490.26 cm**-1
  65:      1495.38 cm**-1
  66:      1499.24 cm**-1
  67:      1500.85 cm**-1
  68:      1515.79 cm**-1
  69:      1518.03 cm**-1
  70:      1518.61 cm**-1
  71:      1524.69 cm**-1
  72:      1531.66 cm**-1
  73:      1538.74 cm**-1
  74:      1542.89 cm**-1
  75:      1570.12 cm**-1
  76:      1741.91 cm**-1
  77:      1748.68 cm**-1
  78:      3023.10 cm**-1
  79:      3031.44 cm**-1
  80:      3062.28 cm**-1
  81:      3066.90 cm**-1
  82:      3073.51 cm**-1
  83:      3081.35 cm**-1
  84:      3083.33 cm**-1
  85:      3085.26 cm**-1
  86:      3096.16 cm**-1
  87:      3124.39 cm**-1
  88:      3130.39 cm**-1
  89:      3147.04 cm**-1
  90:      3150.32 cm**-1
  91:      3161.80 cm**-1
  92:      3167.72 cm**-1
  93:      3177.51 cm**-1
  94:      3187.13 cm**-1
  95:      3191.34 cm**-1

IR SPECTRUM
-----------

 Mode   freq       eps      Int      T**2         TX        TY        TZ
       cm**-1   L/(mol*cm) km/mol    a.u.
----------------------------------------------------------------------------
  6:     29.49   0.000441    2.23  0.004666  (-0.044016 -0.028414  0.043832)
  7:     44.82   0.000192    0.97  0.001335  ( 0.014195  0.033553  0.002703)
  8:     59.90   0.000363    1.83  0.001890  ( 0.020773 -0.026423  0.027580)
  9:     73.27   0.000692    3.50  0.002947  ( 0.040211  0.014585 -0.033422)
 10:     84.72   0.000208    1.05  0.000766  ( 0.026201 -0.008423 -0.002928)
 11:     99.96   0.000524    2.65  0.001636  ( 0.015556  0.024608 -0.028084)
 12:    108.84   0.000846    4.27  0.002425  (-0.024648  0.037063  0.021055)
 13:    122.95   0.001863    9.41  0.004728  ( 0.010634  0.056487  0.037735)
 14:    137.03   0.000120    0.61  0.000273  (-0.003584  0.015519 -0.004395)
 15:    142.70   0.000444    2.24  0.000971  (-0.007039 -0.030343 -0.000661)
 16:    154.53   0.000254    1.29  0.000514  (-0.000890 -0.022443  0.003022)
 17:    167.68   0.000044    0.22  0.000082  ( 0.000274 -0.006176  0.006618)
 18:    205.22   0.000542    2.74  0.000825  (-0.009983 -0.026899  0.001266)
 19:    226.64   0.000147    0.74  0.000203  ( 0.008911 -0.000912 -0.011063)
 20:    259.57   0.000357    1.81  0.000430  ( 0.002099  0.012517 -0.016385)
 21:    282.51   0.001267    6.40  0.001400  ( 0.018343  0.032242 -0.004888)
 22:    318.24   0.000510    2.58  0.000500  (-0.019996 -0.006348  0.007745)
 23:    351.95   0.000999    5.05  0.000886  (-0.010720 -0.008649 -0.026387)
 24:    376.18   0.001692    8.55  0.001404  (-0.011827  0.032388  0.014667)
 25:    384.96   0.001192    6.02  0.000966  (-0.003496  0.016804  0.025914)
 26:    429.88   0.000088    0.45  0.000064  ( 0.007143  0.002191 -0.002881)
 27:    468.47   0.001483    7.49  0.000988  ( 0.030739 -0.001716 -0.006313)
 28:    486.03   0.002908   14.70  0.001867  (-0.014267 -0.033373  0.023455)
 29:    581.28   0.001835    9.27  0.000985  (-0.013536  0.025111  0.013091)
 30:    595.62   0.002184   11.04  0.001144  ( 0.020992 -0.022918 -0.013348)
 31:    625.66   0.002752   13.91  0.001373  ( 0.022762  0.002892  0.029093)
 32:    689.80   0.001095    5.53  0.000495  (-0.006603 -0.012616  0.017107)
 33:    699.26   0.000591    2.98  0.000264  (-0.012948 -0.009784 -0.000461)
 34:    742.51   0.001088    5.50  0.000457  (-0.011455 -0.017120  0.005738)
 35:    761.19   0.001612    8.14  0.000661  (-0.006274  0.023372  0.008669)
 36:    788.79   0.000907    4.59  0.000359  ( 0.018772 -0.000868  0.002418)
 37:    833.63   0.002446   12.36  0.000915  ( 0.011541  0.020237  0.019306)
 38:    957.31   0.000149    0.75  0.000049  ( 0.002335  0.000846  0.006519)
 39:    968.97   0.001399    7.07  0.000451  (-0.009327 -0.017405  0.007790)
 40:    990.89   0.000813    4.11  0.000256  ( 0.008986 -0.001361 -0.013170)
 41:   1004.77   0.002935   14.83  0.000912  ( 0.020579  0.003650  0.021792)
 42:   1010.25   0.005236   26.46  0.001617  (-0.021347  0.028749  0.018306)
 43:   1034.78   0.001905    9.63  0.000575  ( 0.003358 -0.016533 -0.017027)
 44:   1049.52   0.003452   17.44  0.001026  (-0.029575  0.007391 -0.009851)
 45:   1063.23   0.000887    4.48  0.000260  ( 0.001125  0.007750  0.014103)
 46:   1094.91   0.001118    5.65  0.000319  (-0.014287  0.009534 -0.004858)
 47:   1103.08   0.002141   10.82  0.000606  (-0.002739 -0.003010 -0.024271)
 48:   1141.24   0.000146    0.74  0.000040  ( 0.002108 -0.005690  0.001783)
 49:   1167.71   0.010783   54.49  0.002882  (-0.037161 -0.030460 -0.023938)
 50:   1190.04   0.000639    3.23  0.000168  (-0.008954 -0.009086 -0.002216)
 51:   1222.27   0.005881   29.72  0.001502  (-0.002681  0.012982 -0.036412)
 52:   1251.71   0.008664   43.79  0.002160  ( 0.032824 -0.031710  0.008781)
 53:   1286.40   0.002339   11.82  0.000567  (-0.013843 -0.001355 -0.019335)
 54:   1289.49   0.006655   33.63  0.001611  (-0.023747  0.026493  0.018567)
 55:   1298.57   0.018130   91.62  0.004357  (-0.021434  0.059823 -0.017849)
 56:   1343.25   0.003437   17.37  0.000798  ( 0.020222 -0.019014  0.005293)
 57:   1375.15   0.000141    0.71  0.000032  (-0.002448 -0.004914 -0.001329)
 58:   1399.35   0.001142    5.77  0.000255  ( 0.013630 -0.002438 -0.007933)
 59:   1405.53   0.003818   19.29  0.000848  ( 0.028362 -0.005327 -0.003861)
 60:   1420.82   0.002809   14.20  0.000617  ( 0.008986 -0.019166  0.012997)
 61:   1448.77   0.006628   33.50  0.001428  ( 0.015358  0.021516  0.026999)
 62:   1462.01   0.018715   94.58  0.003995  (-0.004216  0.057824  0.025168)
 63:   1473.06   0.024815  125.41  0.005257  (-0.056056  0.037930 -0.026003)
 64:   1490.26   0.000934    4.72  0.000196  ( 0.013349  0.004011  0.001136)
 65:   1495.38   0.006605   33.38  0.001378  ( 0.033563 -0.015131 -0.004796)
 66:   1499.24   0.000381    1.92  0.000079  ( 0.000301 -0.008515 -0.002573)
 67:   1500.85   0.001163    5.88  0.000242  ( 0.002544 -0.002851 -0.015076)
 68:   1515.79   0.001506    7.61  0.000310  ( 0.016592  0.005754  0.001286)
 69:   1518.03   0.002128   10.76  0.000438  ( 0.001757 -0.001563  0.020785)
 70:   1518.61   0.002978   15.05  0.000612  (-0.000539 -0.024554 -0.002965)
 71:   1524.69   0.000098    0.50  0.000020  ( 0.004319 -0.000217  0.001199)
 72:   1531.66   0.006864   34.69  0.001398  ( 0.011953 -0.022405  0.027451)
 73:   1538.74   0.005481   27.70  0.001112  (-0.029760 -0.015029 -0.000110)
 74:   1542.89   0.000864    4.37  0.000175  ( 0.001547  0.002481 -0.012894)
 75:   1570.12   0.008662   43.78  0.001722  (-0.001860  0.025918  0.032349)
 76:   1741.91   0.046632  235.66  0.008354  (-0.061263  0.001180 -0.067821)
 77:   1748.68   0.076086  384.51  0.013578  (-0.114646 -0.003655 -0.020517)
 78:   3023.10   0.005141   25.98  0.000531  ( 0.016773 -0.003270  0.015450)
 79:   3031.44   0.014301   72.27  0.001472  (-0.000092  0.017112  0.034341)
 80:   3062.28   0.000932    4.71  0.000095  (-0.007416 -0.006197  0.001263)
 81:   3066.90   0.003003   15.17  0.000306  (-0.007630  0.008622 -0.013152)
 82:   3073.51   0.009195   46.47  0.000934  ( 0.022005  0.020965 -0.003147)
 83:   3081.35   0.002134   10.78  0.000216  (-0.007093  0.006225 -0.011271)
 84:   3083.33   0.002978   15.05  0.000301  ( 0.001117  0.005632 -0.016383)
 85:   3085.26   0.006546   33.08  0.000662  (-0.015597 -0.020111  0.003795)
 86:   3096.16   0.004411   22.29  0.000445  ( 0.011775  0.009731  0.014534)
 87:   3124.39   0.002190   11.07  0.000219  ( 0.003170 -0.005775 -0.013243)
 88:   3130.39   0.000275    1.39  0.000027  (-0.005071 -0.001243  0.000343)
 89:   3147.04   0.003118   15.76  0.000309  ( 0.006677 -0.014670 -0.007029)
 90:   3150.32   0.003100   15.67  0.000307  (-0.004263 -0.013336  0.010537)
 91:   3161.80   0.000756    3.82  0.000075  (-0.007832 -0.000524 -0.003605)
 92:   3167.72   0.000324    1.64  0.000032  ( 0.000964  0.005335  0.001584)
 93:   3177.51   0.001379    6.97  0.000135  (-0.010795  0.003630 -0.002401)
 94:   3187.13   0.002148   10.85  0.000210  ( 0.000491  0.014446  0.001176)
 95:   3191.34   0.000119    0.60  0.000012  ( 0.003078 -0.001309  0.000643)

--------------------------
THERMOCHEMISTRY AT 298.15K
--------------------------

Temperature         ... 298.15 K
Pressure            ... 1.00 atm
Total Mass          ... 218.31 AMU

Throughout the following assumptions are being made:
  (1) The electronic state is orbitally nondegenerate
  (2) There are no thermally accessible electronically excited states
  (3) Hindered rotations indicated by low frequency modes are not
      treated as such but are treated as vibrations and this may
      cause some error
  (4) All equations used are the standard statistical mechanics
      equations for an ideal gas
  (5) All vibrations are strictly harmonic

freq.      29.49  E(vib)   ...       0.55
freq.      44.82  E(vib)   ...       0.53
freq.      59.90  E(vib)   ...       0.51
freq.      73.27  E(vib)   ...       0.49
freq.      84.72  E(vib)   ...       0.48
freq.      99.96  E(vib)   ...       0.46
freq.     108.84  E(vib)   ...       0.45
freq.     122.95  E(vib)   ...       0.43
freq.     137.03  E(vib)   ...       0.42
freq.     142.70  E(vib)   ...       0.41
freq.     154.53  E(vib)   ...       0.40
freq.     167.68  E(vib)   ...       0.38
freq.     205.22  E(vib)   ...       0.35
freq.     226.64  E(vib)   ...       0.33
freq.     259.57  E(vib)   ...       0.30
freq.     282.51  E(vib)   ...       0.28
freq.     318.24  E(vib)   ...       0.25
freq.     351.95  E(vib)   ...       0.23
freq.     376.18  E(vib)   ...       0.21
freq.     384.96  E(vib)   ...       0.20
freq.     429.88  E(vib)   ...       0.18
freq.     468.47  E(vib)   ...       0.16
freq.     486.03  E(vib)   ...       0.15
freq.     581.28  E(vib)   ...       0.11
freq.     595.62  E(vib)   ...       0.10
freq.     625.66  E(vib)   ...       0.09
freq.     689.80  E(vib)   ...       0.07
freq.     699.26  E(vib)   ...       0.07
freq.     742.51  E(vib)   ...       0.06
freq.     761.19  E(vib)   ...       0.06
freq.     788.79  E(vib)   ...       0.05
freq.     833.63  E(vib)   ...       0.04
freq.     957.31  E(vib)   ...       0.03
freq.     968.97  E(vib)   ...       0.03
freq.     990.89  E(vib)   ...       0.02
freq.    1004.77  E(vib)   ...       0.02
freq.    1010.25  E(vib)   ...       0.02
freq.    1034.78  E(vib)   ...       0.02
freq.    1049.52  E(vib)   ...       0.02
freq.    1063.23  E(vib)   ...       0.02
freq.    1094.91  E(vib)   ...       0.02
freq.    1103.08  E(vib)   ...       0.02
freq.    1141.24  E(vib)   ...       0.01
freq.    1167.71  E(vib)   ...       0.01
freq.    1190.04  E(vib)   ...       0.01
freq.    1222.27  E(vib)   ...       0.01
freq.    1251.71  E(vib)   ...       0.01
freq.    1286.40  E(vib)   ...       0.01
freq.    1289.49  E(vib)   ...       0.01
freq.    1298.57  E(vib)   ...       0.01
freq.    1343.25  E(vib)   ...       0.01
freq.    1375.15  E(vib)   ...       0.01
freq.    1399.35  E(vib)   ...       0.00
freq.    1405.53  E(vib)   ...       0.00
freq.    1420.82  E(vib)   ...       0.00
freq.    1448.77  E(vib)   ...       0.00
freq.    1462.01  E(vib)   ...       0.00
freq.    1473.06  E(vib)   ...       0.00
freq.    1490.26  E(vib)   ...       0.00
freq.    1495.38  E(vib)   ...       0.00
freq.    1499.24  E(vib)   ...       0.00
freq.    1500.85  E(vib)   ...       0.00
freq.    1515.79  E(vib)   ...       0.00
freq.    1518.03  E(vib)   ...       0.00
freq.    1518.61  E(vib)   ...       0.00
freq.    1524.69  E(vib)   ...       0.00
freq.    1531.66  E(vib)   ...       0.00
freq.    1538.74  E(vib)   ...       0.00
freq.    1542.89  E(vib)   ...       0.00
freq.    1570.12  E(vib)   ...       0.00
freq.    1741.91  E(vib)   ...       0.00
freq.    1748.68  E(vib)   ...       0.00
freq.    3023.10  E(vib)   ...       0.00
freq.    3031.44  E(vib)   ...       0.00
freq.    3062.28  E(vib)   ...       0.00
freq.    3066.90  E(vib)   ...       0.00
freq.    3073.51  E(vib)   ...       0.00
freq.    3081.35  E(vib)   ...       0.00
freq.    3083.33  E(vib)   ...       0.00
freq.    3085.26  E(vib)   ...       0.00
freq.    3096.16  E(vib)   ...       0.00
freq.    3124.39  E(vib)   ...       0.00
freq.    3130.39  E(vib)   ...       0.00
freq.    3147.04  E(vib)   ...       0.00
freq.    3150.32  E(vib)   ...       0.00
freq.    3161.80  E(vib)   ...       0.00
freq.    3167.72  E(vib)   ...       0.00
freq.    3177.51  E(vib)   ...       0.00
freq.    3187.13  E(vib)   ...       0.00
freq.    3191.34  E(vib)   ...       0.00

------------
INNER ENERGY
------------

The inner energy is: U= E(el) + E(ZPE) + E(vib) + E(rot) + E(trans)
    E(el)   - is the total energy from the electronic structure calculation
              = E(kin-el) + E(nuc-el) + E(el-el) + E(nuc-nuc)
    E(ZPE)  - the the zero temperature vibrational energy from the frequency calculation
    E(vib)  - the the finite temperature correction to E(ZPE) due to population
              of excited vibrational states
    E(rot)  - is the rotational thermal energy
    E(trans)- is the translational thermal energy

Summary of contributions to the inner energy U:
Electronic energy                ...  -1011.56426163 Eh
Zero point energy                ...      0.27466535 Eh     172.35 kcal/mol
Thermal vibrational correction   ...      0.01459226 Eh       9.16 kcal/mol
Thermal rotational correction    ...      0.00141627 Eh       0.89 kcal/mol
Thermal translational correction ...      0.00141627 Eh       0.89 kcal/mol
-----------------------------------------------------------------------
Total thermal energy                  -1011.27217148 Eh

Summary of corrections to the electronic energy:
(perhaps to be used in another calculation)
Total thermal correction                  0.01742480 Eh      10.93 kcal/mol
Non-thermal (ZPE) correction              0.27466535 Eh     172.35 kcal/mol
-----------------------------------------------------------------------
Total correction                          0.29209015 Eh     183.29 kcal/mol

--------
ENTHALPY
--------

The enthalpy is H = U + kB*T
                kB is Boltzmann's constant
Total free energy                 ...  -1011.27217148 Eh
Thermal Enthalpy correction       ...      0.00094421 Eh       0.59 kcal/mol
-----------------------------------------------------------------------
Total Enthalpy                    ...  -1011.27122727 Eh

Note: Only C1 symmetry has been detected, increase convergence thresholds
      if your molecule has a higher symmetry. Symmetry factor of 1.0 is
      used for the rotational entropy correction.

Note: Rotational entropy computed according to Herzberg
Infrared and Raman Spectra, Chapter V,1, Van Nostrand Reinhold, 1945
Point Group:  C1, Symmetry Number:   1
Rotational constants in cm-1:     0.021327     0.016543     0.011243

                             ****ORCA TERMINATED NORMALLY****
TOTAL RUN TIME: 0 days 0 hours 23 minutes 59 seconds 806 msec
