                         Program Version 5.0.4 -  RELEASE  -
|  1> ! OPT FREQ B3LYP 6-31G(d) D4 AUTOAUX
|  2> ! CPCM
|  3>
|  4> %cpcm
|  5> epsilon 9.8629
|  6> refrac  1.4295
|  7> end
|  8>
|  9> %PAL NPROCS 4 END
| 10>
| 11> %maxcore 3375
| 12>
| 13> *xyzfile 0 1 /users/fjb15167/WWenergy/structures/Ns.xyz
| 14>
| 15>                          ****END OF INPUT****
 Total Charge           Charge          ....    0
 Multiplicity           Mult            ....    1
 Number of Electrons    NEL             ....   94
Dispersion correction           -0.040911592
FINAL SINGLE POINT ENERGY      -610.055850516766
Dispersion correction            ... Starting D4
Dispersion correction           -0.040642277
FINAL SINGLE POINT ENERGY      -610.056957735966
Dispersion correction            ... Starting D4
Dispersion correction           -0.040807376
FINAL SINGLE POINT ENERGY      -610.057322475031
Dispersion correction            ... Starting D4
FINAL SINGLE POINT ENERGY      -610.057404501085
FINAL SINGLE POINT ENERGY      -610.057448564439
FINAL SINGLE POINT ENERGY      -610.057483225936
FINAL SINGLE POINT ENERGY      -610.057494886545
FINAL SINGLE POINT ENERGY      -610.057501605981
FINAL SINGLE POINT ENERGY      -610.057507233347
FINAL SINGLE POINT ENERGY      -610.057513908069
FINAL SINGLE POINT ENERGY      -610.057518009167
FINAL SINGLE POINT ENERGY      -610.057524208274
FINAL SINGLE POINT ENERGY      -610.057531110022
FINAL SINGLE POINT ENERGY      -610.057541979823
Dispersion correction           -0.040900032
FINAL SINGLE POINT ENERGY      -610.057545754673
Dispersion correction            ... Starting D4
Dispersion correction           -0.040884601
FINAL SINGLE POINT ENERGY      -610.057548322533
Dispersion correction            ... Starting D4
                    ***********************HURRAY********************

CARTESIAN COORDINATES (ANGSTROEM)
---------------------------------
  C      0.990920    1.501823   -0.257384
  H      3.049574    1.048236    0.246189
  H      2.047372    1.505004    1.632757
  H      2.550816    2.751296    0.465788
  O      0.436651    2.444272   -0.829865
  C      2.242580    1.710324    0.573520
  N      0.490514    0.222144   -0.323826
  C     -0.633679   -0.062007   -1.219275
  H     -0.938721    0.878131   -1.679079
  H     -0.315943   -0.747419   -2.011061
  C      1.217532   -0.926337    0.205717
  H      1.600876   -0.692095    1.198480
  H      0.501351   -1.749770    0.289932
  O      2.340399   -1.296893   -0.571740
  H      2.019940   -1.667922   -1.411242
  C     -1.788656   -0.766281   -0.495701
  O     -2.018596   -1.955793   -0.752489
  N     -2.503879   -0.059200    0.418452
  C     -3.541963   -0.730903    1.192249
  H     -4.507351   -0.233813    1.037703
  H     -3.607922   -1.768677    0.870000
  H     -3.299424   -0.691473    2.261916
  C     -2.263965    1.330192    0.788675
  H     -1.795358    1.389832    1.780374
  H     -1.624527    1.838864    0.069894
  H     -3.224540    1.856466    0.832019

 Multiplicity           Mult            ....    1
 Number of Electrons    NEL             ....   94
 Basis Dimension        Dim             ....  196

ORBITAL ENERGIES
----------------

  NO   OCC          E(Eh)            E(eV)
   0   2.0000     -19.145887      -520.9861
   1   2.0000     -19.115356      -520.1553
   2   2.0000     -19.106829      -519.9232
   3   2.0000     -14.360989      -390.7824
   4   2.0000     -14.359481      -390.7413
   5   2.0000     -10.287656      -279.9413
   6   2.0000     -10.280020      -279.7336
   7   2.0000     -10.259259      -279.1686
   8   2.0000     -10.213611      -277.9265
   9   2.0000     -10.199783      -277.5502
  10   2.0000     -10.196323      -277.4560
  11   2.0000     -10.173394      -276.8321
  12   2.0000      -1.042151       -28.3584
  13   2.0000      -1.026678       -27.9373
  14   2.0000      -1.024792       -27.8860
  15   2.0000      -0.930727       -25.3264
  16   2.0000      -0.923218       -25.1220
  17   2.0000      -0.760714       -20.7001
  18   2.0000      -0.721876       -19.6432
  19   2.0000      -0.709077       -19.2950
  20   2.0000      -0.691660       -18.8210
  21   2.0000      -0.668772       -18.1982
  22   2.0000      -0.570301       -15.5187
  23   2.0000      -0.540733       -14.7141
  24   2.0000      -0.518521       -14.1097
  25   2.0000      -0.497310       -13.5325
  26   2.0000      -0.485038       -13.1986
  27   2.0000      -0.480699       -13.0805
  28   2.0000      -0.465300       -12.6614
  29   2.0000      -0.456721       -12.4280
  30   2.0000      -0.443982       -12.0814
  31   2.0000      -0.428673       -11.6648
  32   2.0000      -0.408776       -11.1234
  33   2.0000      -0.408027       -11.1030
  34   2.0000      -0.396481       -10.7888
  35   2.0000      -0.396232       -10.7820
  36   2.0000      -0.393664       -10.7122
  37   2.0000      -0.387880       -10.5548
  38   2.0000      -0.374414       -10.1883
  39   2.0000      -0.363593        -9.8939
  40   2.0000      -0.351908        -9.5759
  41   2.0000      -0.343441        -9.3455
  42   2.0000      -0.295415        -8.0387
  43   2.0000      -0.262565        -7.1448
  44   2.0000      -0.255358        -6.9486
  45   2.0000      -0.241875        -6.5818
  46   2.0000      -0.236213        -6.4277
  47   0.0000       0.014209         0.3867
  48   0.0000       0.024080         0.6552
  49   0.0000       0.077992         2.1223
  50   0.0000       0.101874         2.7721
  51   0.0000       0.118415         3.2222

MULLIKEN ATOMIC CHARGES
-----------------------
   0 C :    0.541656
   1 H :    0.195546
   2 H :    0.196448
   3 H :    0.182388
   4 O :   -0.519242
   5 C :   -0.564194
   6 N :   -0.387328
   7 C :   -0.259763
   8 H :    0.209088
   9 H :    0.182451
  10 C :    0.062245
  11 H :    0.184981
  12 H :    0.173532
  13 O :   -0.648842
  14 H :    0.435000
  15 C :    0.524787
  16 O :   -0.539421
  17 N :   -0.359421
  18 C :   -0.330778
  19 H :    0.171491
  20 H :    0.187472
  21 H :    0.169630
  22 C :   -0.345555
  23 H :    0.169672
  24 H :    0.196000
  25 H :    0.172157
Sum of atomic charges:    0.0000000

LOEWDIN ATOMIC CHARGES
----------------------
   0 C :    0.123956
   1 H :    0.155960
   2 H :    0.157657
   3 H :    0.150919
   4 O :   -0.319249
   5 C :   -0.395026
   6 N :   -0.089660
   7 C :   -0.181259
   8 H :    0.162081
   9 H :    0.144674
  10 C :   -0.056207
  11 H :    0.141524
  12 H :    0.133062
  13 O :   -0.420902
  14 H :    0.333931
  15 C :    0.094023
  16 O :   -0.337644
  17 N :   -0.068250
  18 C :   -0.279229
  19 H :    0.134498
  20 H :    0.148617
  21 H :    0.133261
  22 C :   -0.284208
  23 H :    0.132106
  24 H :    0.149030
  25 H :    0.136333

  Mayer bond orders larger than 0.100000
B(  0-C ,  4-O ) :   1.7687 B(  0-C ,  5-C ) :   0.9954 B(  0-C ,  6-N ) :   1.1257
B(  1-H ,  5-C ) :   0.9143 B(  2-H ,  5-C ) :   0.9218 B(  3-H ,  5-C ) :   0.9383
B(  6-N ,  7-C ) :   0.9379 B(  6-N , 10-C ) :   0.9475 B(  7-C ,  8-H ) :   0.8934
B(  7-C ,  9-H ) :   0.9179 B(  7-C , 15-C ) :   0.9358 B( 10-C , 11-H ) :   0.9223
B( 10-C , 12-H ) :   0.9155 B( 10-C , 13-O ) :   0.9838 B( 13-O , 14-H ) :   0.7620
B( 15-C , 16-O ) :   1.7471 B( 15-C , 17-N ) :   1.2042 B( 16-O , 17-N ) :   0.1030
B( 17-N , 18-C ) :   0.9477 B( 17-N , 22-C ) :   0.9510 B( 18-C , 19-H ) :   0.9370
B( 18-C , 20-H ) :   0.9240 B( 18-C , 21-H ) :   0.9367 B( 22-C , 23-H ) :   0.9325
B( 22-C , 24-H ) :   0.9032 B( 22-C , 25-H ) :   0.9342

Dispersion correction           -0.040883412
FINAL SINGLE POINT ENERGY      -610.057549129204

DIPOLE MOMENT
-------------
                                X             Y             Z
Electronic contribution:      1.77646      -2.04274      -5.48183
Nuclear contribution   :     -1.84992       2.12812       6.57361
                        -----------------------------------------
Total Dipole Moment    :     -0.07346       0.08538       1.09178
                        -----------------------------------------
Magnitude (a.u.)       :      1.09757
Magnitude (Debye)      :      2.78981

Dispersion correction in the Hessian             ... Starting D4

VIBRATIONAL FREQUENCIES
-----------------------

Scaling factor for frequencies =  1.000000000  (already applied!)

   0:         0.00 cm**-1
   1:         0.00 cm**-1
   2:         0.00 cm**-1
   3:         0.00 cm**-1
   4:         0.00 cm**-1
   5:         0.00 cm**-1
   6:        29.72 cm**-1
   7:        65.84 cm**-1
   8:        71.23 cm**-1
   9:        84.39 cm**-1
  10:       109.05 cm**-1
  11:       116.25 cm**-1
  12:       144.80 cm**-1
  13:       159.59 cm**-1
  14:       191.08 cm**-1
  15:       216.18 cm**-1
  16:       257.28 cm**-1
  17:       278.28 cm**-1
  18:       321.52 cm**-1
  19:       346.42 cm**-1
  20:       391.79 cm**-1
  21:       424.77 cm**-1
  22:       445.74 cm**-1
  23:       464.89 cm**-1
  24:       525.00 cm**-1
  25:       575.38 cm**-1
  26:       610.58 cm**-1
  27:       635.62 cm**-1
  28:       709.51 cm**-1
  29:       763.08 cm**-1
  30:       807.44 cm**-1
  31:       951.39 cm**-1
  32:       994.89 cm**-1
  33:      1001.27 cm**-1
  34:      1010.00 cm**-1
  35:      1050.48 cm**-1
  36:      1066.81 cm**-1
  37:      1089.33 cm**-1
  38:      1109.29 cm**-1
  39:      1136.62 cm**-1
  40:      1167.07 cm**-1
  41:      1183.77 cm**-1
  42:      1219.98 cm**-1
  43:      1262.45 cm**-1
  44:      1285.60 cm**-1
  45:      1306.96 cm**-1
  46:      1373.98 cm**-1
  47:      1397.26 cm**-1
  48:      1414.91 cm**-1
  49:      1436.03 cm**-1
  50:      1441.50 cm**-1
  51:      1458.75 cm**-1
  52:      1476.90 cm**-1
  53:      1490.87 cm**-1
  54:      1492.26 cm**-1
  55:      1501.14 cm**-1
  56:      1508.28 cm**-1
  57:      1510.46 cm**-1
  58:      1520.06 cm**-1
  59:      1530.65 cm**-1
  60:      1539.23 cm**-1
  61:      1557.88 cm**-1
  62:      1711.41 cm**-1
  63:      1723.52 cm**-1
  64:      3036.25 cm**-1
  65:      3043.60 cm**-1
  66:      3064.30 cm**-1
  67:      3086.12 cm**-1
  68:      3091.35 cm**-1
  69:      3091.77 cm**-1
  70:      3095.40 cm**-1
  71:      3133.04 cm**-1
  72:      3164.99 cm**-1
  73:      3167.92 cm**-1
  74:      3175.21 cm**-1
  75:      3193.86 cm**-1
  76:      3196.87 cm**-1
  77:      3723.87 cm**-1

IR SPECTRUM
-----------

 Mode   freq       eps      Int      T**2         TX        TY        TZ
       cm**-1   L/(mol*cm) km/mol    a.u.
----------------------------------------------------------------------------
  6:     29.72   0.001514    7.65  0.015904  ( 0.050871 -0.014003  0.114541)
  7:     65.84   0.000047    0.24  0.000224  (-0.002727  0.003445 -0.014323)
  8:     71.23   0.000572    2.89  0.002505  (-0.044311 -0.003427  0.023012)
  9:     84.39   0.001046    5.29  0.003868  ( 0.061970 -0.005117 -0.001416)
 10:    109.05   0.001530    7.73  0.004377  (-0.006194 -0.016563 -0.063750)
 11:    116.25   0.002214   11.19  0.005945  ( 0.065077 -0.006221 -0.040877)
 12:    144.80   0.001155    5.84  0.002490  (-0.043018  0.010408 -0.023036)
 13:    159.59   0.000062    0.31  0.000121  (-0.000797 -0.007866 -0.007619)
 14:    191.08   0.000044    0.22  0.000072  (-0.001475  0.005701  0.006077)
 15:    216.18   0.000894    4.52  0.001291  (-0.008553  0.002815 -0.034779)
 16:    257.28   0.002755   13.92  0.003342  ( 0.056982  0.005057  0.008318)
 17:    278.28   0.003372   17.04  0.003781  (-0.003973  0.054474 -0.028245)
 18:    321.52   0.024128  121.93  0.023418  ( 0.009283 -0.148509  0.035742)
 19:    346.42   0.007354   37.17  0.006625  ( 0.017394  0.063985 -0.047205)
 20:    391.79   0.006334   32.01  0.005045  (-0.026506  0.060327  0.026518)
 21:    424.77   0.000837    4.23  0.000615  ( 0.008507  0.023192 -0.002154)
 22:    445.74   0.003653   18.46  0.002558  ( 0.021574 -0.045044  0.007955)
 23:    464.89   0.003408   17.22  0.002288  ( 0.028382  0.033366 -0.019209)
 24:    525.00   0.005159   26.07  0.003066  ( 0.033053 -0.012724  0.042566)
 25:    575.38   0.002774   14.02  0.001504  (-0.025068 -0.025228  0.015480)
 26:    610.58   0.005306   26.81  0.002712  (-0.028347  0.006312  0.043224)
 27:    635.62   0.008980   45.38  0.004409  ( 0.002011 -0.064244  0.016655)
 28:    709.51   0.001519    7.67  0.000668  (-0.002392 -0.010341  0.023564)
 29:    763.08   0.003826   19.34  0.001565  ( 0.025658  0.016359 -0.025274)
 30:    807.44   0.006157   31.12  0.002380  (-0.035931  0.031261  0.010553)
 31:    951.39   0.003222   16.29  0.001057  ( 0.017461  0.022094 -0.016248)
 32:    994.89   0.022778  115.11  0.007145  (-0.072269  0.038124  0.021642)
 33:   1001.27   0.008214   41.51  0.002560  ( 0.015751  0.036885 -0.030845)
 34:   1010.00   0.005717   28.89  0.001767  ( 0.018362  0.035620  0.012673)
 35:   1050.48   0.044568  225.23  0.013240  ( 0.080419 -0.056345 -0.059981)
 36:   1066.81   0.004439   22.43  0.001298  (-0.019585  0.011964  0.027779)
 37:   1089.33   0.002367   11.96  0.000678  ( 0.007631  0.024780 -0.002412)
 38:   1109.29   0.010380   52.46  0.002920  ( 0.027579 -0.041251 -0.021398)
 39:   1136.62   0.000404    2.04  0.000111  ( 0.003392  0.008681  0.004910)
 40:   1167.07   0.011754   59.40  0.003143  (-0.032526  0.041715  0.018570)
 41:   1183.77   0.000476    2.41  0.000125  ( 0.004509 -0.010147 -0.001482)
 42:   1219.98   0.007619   38.50  0.001949  ( 0.001680 -0.002618 -0.044036)
 43:   1262.45   0.034204  172.85  0.008455  ( 0.030621  0.083654  0.022784)
 44:   1285.60   0.012197   61.64  0.002961  ( 0.037446  0.022483 -0.032450)
 45:   1306.96   0.018091   91.43  0.004320  (-0.064316 -0.003866 -0.012970)
 46:   1373.98   0.001814    9.17  0.000412  ( 0.000000  0.020266 -0.001159)
 47:   1397.26   0.007688   38.85  0.001717  (-0.016054 -0.033546  0.018275)
 48:   1414.91   0.012055   60.92  0.002659  ( 0.049700  0.008762  0.010583)
 49:   1436.03   0.018248   92.22  0.003965  ( 0.006704  0.062317  0.006098)
 50:   1441.50   0.019514   98.61  0.004224  ( 0.024980 -0.051056 -0.031524)
 51:   1458.75   0.020806  105.14  0.004451  ( 0.052152 -0.013408 -0.039386)
 52:   1476.90   0.027963  141.32  0.005909  ( 0.049436  0.058846 -0.001342)
 53:   1490.87   0.004121   20.83  0.000863  ( 0.024979 -0.015332  0.001916)
 54:   1492.26   0.002913   14.72  0.000609  (-0.013711  0.009421 -0.018234)
 55:   1501.14   0.002382   12.04  0.000495  ( 0.007020  0.011939 -0.017416)
 56:   1508.28   0.002401   12.14  0.000497  ( 0.015141  0.016342  0.000736)
 57:   1510.46   0.004283   21.65  0.000885  (-0.015984 -0.011493 -0.022302)
 58:   1520.06   0.004164   21.04  0.000855  ( 0.026910 -0.010802  0.003729)
 59:   1530.65   0.004591   23.20  0.000936  (-0.011453  0.016515 -0.023064)
 60:   1539.23   0.004033   20.38  0.000818  ( 0.018517  0.021709  0.001847)
 61:   1557.88   0.014820   74.89  0.002969  (-0.037183  0.000658  0.039820)
 62:   1711.41   0.144190  728.68  0.026292  ( 0.023060 -0.149356 -0.058763)
 63:   1723.52   0.064547  326.19  0.011687  (-0.032109  0.088599 -0.052974)
 64:   3036.25   0.007543   38.12  0.000775  ( 0.006612  0.023131  0.014017)
 65:   3043.60   0.018167   91.81  0.001863  ( 0.023498 -0.010170 -0.034743)
 66:   3064.30   0.000439    2.22  0.000045  (-0.003547 -0.001147 -0.005550)
 67:   3086.12   0.007357   37.18  0.000744  ( 0.006318  0.004424 -0.026163)
 68:   3091.35   0.007008   35.41  0.000707  (-0.003739  0.026015 -0.004082)
 69:   3091.77   0.016325   82.50  0.001648  ( 0.034825 -0.005351  0.020159)
 70:   3095.40   0.000457    2.31  0.000046  (-0.001264  0.001318  0.006536)
 71:   3133.04   0.001071    5.41  0.000107  ( 0.007013  0.003056 -0.006941)
 72:   3164.99   0.001636    8.27  0.000161  ( 0.011832  0.003010 -0.003496)
 73:   3167.92   0.004876   24.64  0.000480  (-0.011372 -0.009097 -0.016378)
 74:   3175.21   0.001829    9.24  0.000180  (-0.000013  0.012178 -0.005606)
 75:   3193.86   0.000835    4.22  0.000082  ( 0.005688  0.007013  0.000148)
 76:   3196.87   0.000543    2.75  0.000053  (-0.006090  0.002505 -0.003110)
 77:   3723.87   0.011072   55.95  0.000928  ( 0.000565  0.015777  0.026051)

--------------------------
THERMOCHEMISTRY AT 298.15K
--------------------------

Temperature         ... 298.15 K
Pressure            ... 1.00 atm
Total Mass          ... 174.20 AMU

Throughout the following assumptions are being made:
  (1) The electronic state is orbitally nondegenerate
  (2) There are no thermally accessible electronically excited states
  (3) Hindered rotations indicated by low frequency modes are not
      treated as such but are treated as vibrations and this may
      cause some error
  (4) All equations used are the standard statistical mechanics
      equations for an ideal gas
  (5) All vibrations are strictly harmonic

freq.      29.72  E(vib)   ...       0.55
freq.      65.84  E(vib)   ...       0.50
freq.      71.23  E(vib)   ...       0.50
freq.      84.39  E(vib)   ...       0.48
freq.     109.05  E(vib)   ...       0.45
freq.     116.25  E(vib)   ...       0.44
freq.     144.80  E(vib)   ...       0.41
freq.     159.59  E(vib)   ...       0.39
freq.     191.08  E(vib)   ...       0.36
freq.     216.18  E(vib)   ...       0.34
freq.     257.28  E(vib)   ...       0.30
freq.     278.28  E(vib)   ...       0.28
freq.     321.52  E(vib)   ...       0.25
freq.     346.42  E(vib)   ...       0.23
freq.     391.79  E(vib)   ...       0.20
freq.     424.77  E(vib)   ...       0.18
freq.     445.74  E(vib)   ...       0.17
freq.     464.89  E(vib)   ...       0.16
freq.     525.00  E(vib)   ...       0.13
freq.     575.38  E(vib)   ...       0.11
freq.     610.58  E(vib)   ...       0.10
freq.     635.62  E(vib)   ...       0.09
freq.     709.51  E(vib)   ...       0.07
freq.     763.08  E(vib)   ...       0.06
freq.     807.44  E(vib)   ...       0.05
freq.     951.39  E(vib)   ...       0.03
freq.     994.89  E(vib)   ...       0.02
freq.    1001.27  E(vib)   ...       0.02
freq.    1010.00  E(vib)   ...       0.02
freq.    1050.48  E(vib)   ...       0.02
freq.    1066.81  E(vib)   ...       0.02
freq.    1089.33  E(vib)   ...       0.02
freq.    1109.29  E(vib)   ...       0.02
freq.    1136.62  E(vib)   ...       0.01
freq.    1167.07  E(vib)   ...       0.01
freq.    1183.77  E(vib)   ...       0.01
freq.    1219.98  E(vib)   ...       0.01
freq.    1262.45  E(vib)   ...       0.01
freq.    1285.60  E(vib)   ...       0.01
freq.    1306.96  E(vib)   ...       0.01
freq.    1373.98  E(vib)   ...       0.01
freq.    1397.26  E(vib)   ...       0.00
freq.    1414.91  E(vib)   ...       0.00
freq.    1436.03  E(vib)   ...       0.00
freq.    1441.50  E(vib)   ...       0.00
freq.    1458.75  E(vib)   ...       0.00
freq.    1476.90  E(vib)   ...       0.00
freq.    1490.87  E(vib)   ...       0.00
freq.    1492.26  E(vib)   ...       0.00
freq.    1501.14  E(vib)   ...       0.00
freq.    1508.28  E(vib)   ...       0.00
freq.    1510.46  E(vib)   ...       0.00
freq.    1520.06  E(vib)   ...       0.00
freq.    1530.65  E(vib)   ...       0.00
freq.    1539.23  E(vib)   ...       0.00
freq.    1557.88  E(vib)   ...       0.00
freq.    1711.41  E(vib)   ...       0.00
freq.    1723.52  E(vib)   ...       0.00
freq.    3036.25  E(vib)   ...       0.00
freq.    3043.60  E(vib)   ...       0.00
freq.    3064.30  E(vib)   ...       0.00
freq.    3086.12  E(vib)   ...       0.00
freq.    3091.35  E(vib)   ...       0.00
freq.    3091.77  E(vib)   ...       0.00
freq.    3095.40  E(vib)   ...       0.00
freq.    3133.04  E(vib)   ...       0.00
freq.    3164.99  E(vib)   ...       0.00
freq.    3167.92  E(vib)   ...       0.00
freq.    3175.21  E(vib)   ...       0.00
freq.    3193.86  E(vib)   ...       0.00
freq.    3196.87  E(vib)   ...       0.00
freq.    3723.87  E(vib)   ...       0.00

------------
INNER ENERGY
------------

The inner energy is: U= E(el) + E(ZPE) + E(vib) + E(rot) + E(trans)
    E(el)   - is the total energy from the electronic structure calculation
              = E(kin-el) + E(nuc-el) + E(el-el) + E(nuc-nuc)
    E(ZPE)  - the the zero temperature vibrational energy from the frequency calculation
    E(vib)  - the the finite temperature correction to E(ZPE) due to population
              of excited vibrational states
    E(rot)  - is the rotational thermal energy
    E(trans)- is the translational thermal energy

Summary of contributions to the inner energy U:
Electronic energy                ...   -610.05754913 Eh
Zero point energy                ...      0.22082510 Eh     138.57 kcal/mol
Thermal vibrational correction   ...      0.01126960 Eh       7.07 kcal/mol
Thermal rotational correction    ...      0.00141627 Eh       0.89 kcal/mol
Thermal translational correction ...      0.00141627 Eh       0.89 kcal/mol
-----------------------------------------------------------------------
Total thermal energy                   -609.82262189 Eh

Summary of corrections to the electronic energy:
(perhaps to be used in another calculation)
Total thermal correction                  0.01410214 Eh       8.85 kcal/mol
Non-thermal (ZPE) correction              0.22082510 Eh     138.57 kcal/mol
-----------------------------------------------------------------------
Total correction                          0.23492724 Eh     147.42 kcal/mol

--------
ENTHALPY
--------

The enthalpy is H = U + kB*T
                kB is Boltzmann's constant
Total free energy                 ...   -609.82262189 Eh
Thermal Enthalpy correction       ...      0.00094421 Eh       0.59 kcal/mol
-----------------------------------------------------------------------
Total Enthalpy                    ...   -609.82167768 Eh

Note: Only C1 symmetry has been detected, increase convergence thresholds
      if your molecule has a higher symmetry. Symmetry factor of 1.0 is
      used for the rotational entropy correction.

Note: Rotational entropy computed according to Herzberg
Infrared and Raman Spectra, Chapter V,1, Van Nostrand Reinhold, 1945
Point Group:  C1, Symmetry Number:   1
Rotational constants in cm-1:     0.044104     0.021596     0.016983

Vibrational entropy computed according to the QRRHO of S. Grimme
Chem.Eur.J. 2012 18 9955

-------
ENTROPY
-------

The entropy contributions are T*S = T*(S(el)+S(vib)+S(rot)+S(trans))
     S(el)   - electronic entropy
     S(vib)  - vibrational entropy
     S(rot)  - rotational entropy
     S(trans)- translational entropy
The entropies will be listed as multiplied by the temperature to get
units of energy

Electronic entropy                ...      0.00000000 Eh      0.00 kcal/mol
Vibrational entropy               ...      0.02026511 Eh     12.72 kcal/mol

                             ****ORCA TERMINATED NORMALLY****
TOTAL RUN TIME: 0 days 0 hours 25 minutes 0 seconds 450 msec
