                         Program Version 5.0.4 -  RELEASE  -
|  1> ! OPT FREQ B3LYP 6-31G(d) D4 AUTOAUX
|  2> ! CPCM
|  3>
|  4> %cpcm
|  5> epsilon 9.8629
|  6> refrac  1.4295
|  7> end
|  8>
|  9> %PAL NPROCS 4 END
| 10>
| 11> %maxcore 3375
| 12>
| 13> *xyzfile 0 1 /users/fjb15167/WWenergy/structures/Nv.xyz
| 14>
| 15>                          ****END OF INPUT****
 Total Charge           Charge          ....    0
 Multiplicity           Mult            ....    1
 Number of Electrons    NEL             ....  102
Dispersion correction           -0.052466143
FINAL SINGLE POINT ENERGY      -613.447787265129
Dispersion correction            ... Starting D4
Dispersion correction           -0.052190471
FINAL SINGLE POINT ENERGY      -613.448212886792
Dispersion correction            ... Starting D4
Dispersion correction           -0.052415908
FINAL SINGLE POINT ENERGY      -613.448298312944
Dispersion correction            ... Starting D4
FINAL SINGLE POINT ENERGY      -613.448366530160
FINAL SINGLE POINT ENERGY      -613.448385122300
FINAL SINGLE POINT ENERGY      -613.448404311226
FINAL SINGLE POINT ENERGY      -613.448414291380
Dispersion correction           -0.052521752
FINAL SINGLE POINT ENERGY      -613.448419323119
Dispersion correction            ... Starting D4
Dispersion correction           -0.052523683
FINAL SINGLE POINT ENERGY      -613.448422062707
Dispersion correction            ... Starting D4
                    ***********************HURRAY********************

CARTESIAN COORDINATES (ANGSTROEM)
---------------------------------
  C     -2.758566    1.169789    0.712242
  H     -2.638514    0.499701    1.563623
  H     -3.651399    0.860844    0.157213
  H     -2.919211    2.187931    1.072739
  C     -1.563829    1.207354   -0.222488
  O     -1.259665    2.280918   -0.763465
  N     -0.851668    0.063596   -0.461470
  C      0.257828    0.137974   -1.415529
  H      0.051085   -0.511924   -2.271302
  H      0.329621    1.166740   -1.767306
  C      1.581006   -0.368643   -0.826014
  N      2.168084    0.357178    0.163635
  O      2.061209   -1.427549   -1.251870
  C      1.642519    1.594808    0.726502
  H      1.195657    1.413359    1.713512
  H      2.468239    2.304943    0.849539
  H      0.891848    2.047060    0.081196
  C      3.355394   -0.168404    0.827911
  H      3.129405   -0.410901    1.874750
  H      3.681772   -1.067494    0.308207
  H      4.155131    0.581198    0.810434
  C     -1.118470   -1.300076    0.073102
  C     -2.536418   -1.815840   -0.204864
  C     -0.694108   -1.454386    1.540125
  H     -0.446232   -1.933610   -0.512069
  H     -2.825045   -1.616830   -1.242777
  H     -2.552817   -2.900197   -0.048049
  H     -3.287005   -1.377015    0.456824
  H      0.343545   -1.135594    1.679533
  H     -1.324979   -0.874723    2.220725
  H     -0.770415   -2.508206    1.831392

 Multiplicity           Mult            ....    1
 Number of Electrons    NEL             ....  102
 Basis Dimension        Dim             ....  218

ORBITAL ENERGIES
----------------

  NO   OCC          E(Eh)            E(eV)
   0   2.0000     -19.106054      -519.9022
   1   2.0000     -19.105908      -519.8982
   2   2.0000     -14.358565      -390.7164
   3   2.0000     -14.358012      -390.7014
   4   2.0000     -10.282037      -279.7885
   5   2.0000     -10.278550      -279.6936
   6   2.0000     -10.220591      -278.1164
   7   2.0000     -10.208577      -277.7895
   8   2.0000     -10.198774      -277.5227
   9   2.0000     -10.195832      -277.4427
  10   2.0000     -10.171900      -276.7915
  11   2.0000     -10.164928      -276.6017
  12   2.0000     -10.164749      -276.5969
  13   2.0000      -1.030346       -28.0371
  14   2.0000      -1.023673       -27.8556
  15   2.0000      -0.931126       -25.3372
  16   2.0000      -0.924134       -25.1470
  17   2.0000      -0.780048       -21.2262
  18   2.0000      -0.750809       -20.4305
  19   2.0000      -0.717755       -19.5311
  20   2.0000      -0.705421       -19.1955
  21   2.0000      -0.685912       -18.6646
  22   2.0000      -0.669982       -18.2311
  23   2.0000      -0.621669       -16.9165
  24   2.0000      -0.543705       -14.7950
  25   2.0000      -0.524684       -14.2774
  26   2.0000      -0.500533       -13.6202
  27   2.0000      -0.489313       -13.3149
  28   2.0000      -0.477852       -13.0030
  29   2.0000      -0.461729       -12.5643
  30   2.0000      -0.455043       -12.3823
  31   2.0000      -0.447460       -12.1760
  32   2.0000      -0.430059       -11.7025
  33   2.0000      -0.419828       -11.4241
  34   2.0000      -0.409901       -11.1540
  35   2.0000      -0.406765       -11.0686
  36   2.0000      -0.396264       -10.7829
  37   2.0000      -0.393771       -10.7151
  38   2.0000      -0.392591       -10.6829
  39   2.0000      -0.388667       -10.5762
  40   2.0000      -0.380659       -10.3583
  41   2.0000      -0.372887       -10.1468
  42   2.0000      -0.370493       -10.0816
  43   2.0000      -0.350785        -9.5453
  44   2.0000      -0.347763        -9.4631
  45   2.0000      -0.340400        -9.2628
  46   2.0000      -0.332217        -9.0401
  47   2.0000      -0.256667        -6.9843
  48   2.0000      -0.249503        -6.7893
  49   2.0000      -0.236555        -6.4370
  50   2.0000      -0.233899        -6.3647
  51   0.0000       0.016376         0.4456
  52   0.0000       0.030422         0.8278
  53   0.0000       0.081791         2.2256
  54   0.0000       0.105708         2.8765
  55   0.0000       0.115910         3.1541

MULLIKEN ATOMIC CHARGES
-----------------------
   0 C :   -0.556786
   1 H :    0.184119
   2 H :    0.197657
   3 H :    0.180871
   4 C :    0.534316
   5 O :   -0.538799
   6 N :   -0.378632
   7 C :   -0.259453
   8 H :    0.180894
   9 H :    0.206830
  10 C :    0.523278
  11 N :   -0.359247
  12 O :   -0.538580
  13 C :   -0.345988
  14 H :    0.168465
  15 H :    0.171188
  16 H :    0.196346
  17 C :   -0.331150
  18 H :    0.169672
  19 H :    0.187040
  20 H :    0.170578
  21 C :    0.022479
  22 C :   -0.467092
  23 C :   -0.468132
  24 H :    0.171082
  25 H :    0.161390
  26 H :    0.162253
  27 H :    0.163192
  28 H :    0.167651
  29 H :    0.164315
  30 H :    0.160242
Sum of atomic charges:   -0.0000000

LOEWDIN ATOMIC CHARGES
----------------------
   0 C :   -0.391542
   1 H :    0.145171
   2 H :    0.159525
   3 H :    0.150867
   4 C :    0.116420
   5 O :   -0.341326
   6 N :   -0.069823
   7 C :   -0.181258
   8 H :    0.144359
   9 H :    0.160730
  10 C :    0.094524
  11 N :   -0.069278
  12 O :   -0.336970
  13 C :   -0.285287
  14 H :    0.130753
  15 H :    0.136039
  16 H :    0.149486
  17 C :   -0.279912
  18 H :    0.132029
  19 H :    0.148396
  20 H :    0.134671
  21 C :   -0.058424
  22 C :   -0.369521
  23 C :   -0.370580
  24 H :    0.144022
  25 H :    0.134653
  26 H :    0.137634
  27 H :    0.132444
  28 H :    0.135287
  29 H :    0.130513
  30 H :    0.136398

  Mayer bond orders larger than 0.100000
B(  0-C ,  1-H ) :   0.9145 B(  0-C ,  2-H ) :   0.9214 B(  0-C ,  3-H ) :   0.9365
B(  0-C ,  4-C ) :   0.9933 B(  4-C ,  5-O ) :   1.7215 B(  4-C ,  6-N ) :   1.1730
B(  6-N ,  7-C ) :   0.9495 B(  6-N , 21-C ) :   0.9020 B(  7-C ,  8-H ) :   0.9166
B(  7-C ,  9-H ) :   0.8894 B(  7-C , 10-C ) :   0.9371 B( 10-C , 11-N ) :   1.1950
B( 10-C , 12-O ) :   1.7503 B( 11-N , 12-O ) :   0.1012 B( 11-N , 13-C ) :   0.9517
B( 11-N , 17-C ) :   0.9483 B( 13-C , 14-H ) :   0.9307 B( 13-C , 15-H ) :   0.9345
B( 13-C , 16-H ) :   0.9023 B( 17-C , 18-H ) :   0.9355 B( 17-C , 19-H ) :   0.9241
B( 17-C , 20-H ) :   0.9373 B( 21-C , 22-C ) :   1.0115 B( 21-C , 23-C ) :   1.0037
B( 21-C , 24-H ) :   0.9160 B( 22-C , 25-H ) :   0.9446 B( 22-C , 26-H ) :   0.9409
B( 22-C , 27-H ) :   0.9380 B( 23-C , 28-H ) :   0.9379 B( 23-C , 29-H ) :   0.9339
B( 23-C , 30-H ) :   0.9405

Dispersion correction           -0.052522640
FINAL SINGLE POINT ENERGY      -613.448423833886

DIPOLE MOMENT
-------------
                                X             Y             Z
Electronic contribution:      3.78970       3.13528      -7.78517
Nuclear contribution   :     -4.34909      -3.44503       9.38750
                        -----------------------------------------
Total Dipole Moment    :     -0.55939      -0.30974       1.60233
                        -----------------------------------------
Magnitude (a.u.)       :      1.72520
Magnitude (Debye)      :      4.38512

Dispersion correction in the Hessian             ... Starting D4

VIBRATIONAL FREQUENCIES
-----------------------

Scaling factor for frequencies =  1.000000000  (already applied!)

   0:         0.00 cm**-1
   1:         0.00 cm**-1
   2:         0.00 cm**-1
   3:         0.00 cm**-1
   4:         0.00 cm**-1
   5:         0.00 cm**-1
   6:        45.66 cm**-1
   7:        61.34 cm**-1
   8:        78.11 cm**-1
   9:        81.42 cm**-1
  10:        96.03 cm**-1
  11:       112.20 cm**-1
  12:       144.38 cm**-1
  13:       167.18 cm**-1
  14:       178.09 cm**-1
  15:       214.12 cm**-1
  16:       227.11 cm**-1
  17:       236.14 cm**-1
  18:       259.15 cm**-1
  19:       273.90 cm**-1
  20:       311.41 cm**-1
  21:       330.74 cm**-1
  22:       359.83 cm**-1
  23:       393.48 cm**-1
  24:       427.42 cm**-1
  25:       450.05 cm**-1
  26:       482.59 cm**-1
  27:       535.94 cm**-1
  28:       578.88 cm**-1
  29:       610.47 cm**-1
  30:       620.68 cm**-1
  31:       680.09 cm**-1
  32:       745.38 cm**-1
  33:       786.18 cm**-1
  34:       890.08 cm**-1
  35:       944.92 cm**-1
  36:       958.70 cm**-1
  37:       963.99 cm**-1
  38:      1002.41 cm**-1
  39:      1013.26 cm**-1
  40:      1063.29 cm**-1
  41:      1070.21 cm**-1
  42:      1090.87 cm**-1
  43:      1136.28 cm**-1
  44:      1151.20 cm**-1
  45:      1158.82 cm**-1
  46:      1161.89 cm**-1
  47:      1184.09 cm**-1
  48:      1200.77 cm**-1
  49:      1235.34 cm**-1
  50:      1277.19 cm**-1
  51:      1287.37 cm**-1
  52:      1368.82 cm**-1
  53:      1374.56 cm**-1
  54:      1379.53 cm**-1
  55:      1416.06 cm**-1
  56:      1425.68 cm**-1
  57:      1440.49 cm**-1
  58:      1441.98 cm**-1
  59:      1457.55 cm**-1
  60:      1484.24 cm**-1
  61:      1490.00 cm**-1
  62:      1498.53 cm**-1
  63:      1502.75 cm**-1
  64:      1507.02 cm**-1
  65:      1510.35 cm**-1
  66:      1512.20 cm**-1
  67:      1517.57 cm**-1
  68:      1521.86 cm**-1
  69:      1524.12 cm**-1
  70:      1531.58 cm**-1
  71:      1541.76 cm**-1
  72:      1556.57 cm**-1
  73:      1691.67 cm**-1
  74:      1711.25 cm**-1
  75:      3034.93 cm**-1
  76:      3041.58 cm**-1
  77:      3057.76 cm**-1
  78:      3062.14 cm**-1
  79:      3076.32 cm**-1
  80:      3086.17 cm**-1
  81:      3092.56 cm**-1
  82:      3092.90 cm**-1
  83:      3095.77 cm**-1
  84:      3122.15 cm**-1
  85:      3127.38 cm**-1
  86:      3138.57 cm**-1
  87:      3148.06 cm**-1
  88:      3151.68 cm**-1
  89:      3168.86 cm**-1
  90:      3185.76 cm**-1
  91:      3194.33 cm**-1
  92:      3195.99 cm**-1

IR SPECTRUM
-----------

 Mode   freq       eps      Int      T**2         TX        TY        TZ
       cm**-1   L/(mol*cm) km/mol    a.u.
----------------------------------------------------------------------------
  6:     45.66   0.001542    7.79  0.010536  (-0.025263 -0.039429  0.091343)
  7:     61.34   0.000102    0.52  0.000519  (-0.008542  0.000906  0.021104)
  8:     78.11   0.000010    0.05  0.000039  (-0.003439  0.003208  0.004101)
  9:     81.42   0.000861    4.35  0.003298  (-0.050226  0.001596  0.027807)
 10:     96.03   0.000479    2.42  0.001557  ( 0.035611  0.009199  0.014277)
 11:    112.20   0.002777   14.03  0.007724  (-0.076019 -0.013885 -0.041858)
 12:    144.38   0.000659    3.33  0.001425  (-0.033579 -0.013345  0.010906)
 13:    167.18   0.000018    0.09  0.000034  ( 0.000277  0.005579 -0.001626)
 14:    178.09   0.000051    0.26  0.000089  (-0.005581  0.001046 -0.007528)
 15:    214.12   0.000267    1.35  0.000389  (-0.009482 -0.009270  0.014595)
 16:    227.11   0.000515    2.60  0.000707  (-0.004341  0.007020 -0.025280)
 17:    236.14   0.000979    4.95  0.001294  (-0.033898  0.009603  0.007240)
 18:    259.15   0.001396    7.06  0.001682  (-0.034265 -0.017338  0.014385)
 19:    273.90   0.000635    3.21  0.000724  ( 0.023278  0.013475 -0.000274)
 20:    311.41   0.000593    3.00  0.000594  ( 0.005162  0.012590 -0.020225)
 21:    330.74   0.000665    3.36  0.000627  (-0.023808  0.005856 -0.005106)
 22:    359.83   0.003198   16.16  0.002774  (-0.021615 -0.038637 -0.028524)
 23:    393.48   0.001667    8.42  0.001322  (-0.009741  0.017227 -0.030503)
 24:    427.42   0.001293    6.53  0.000944  ( 0.028237  0.010820  0.005419)
 25:    450.05   0.002242   11.33  0.001555  (-0.027302  0.017368 -0.022530)
 26:    482.59   0.000732    3.70  0.000473  (-0.014295  0.012086  0.011081)
 27:    535.94   0.004735   23.93  0.002757  ( 0.038589 -0.015275 -0.032163)
 28:    578.88   0.003350   16.93  0.001806  (-0.025158  0.022780 -0.025573)
 29:    610.47   0.001708    8.63  0.000873  ( 0.000518  0.009339 -0.028030)
 30:    620.68   0.004369   22.08  0.002197  (-0.033107 -0.026306 -0.020210)
 31:    680.09   0.002670   13.49  0.001225  ( 0.004699 -0.023870 -0.025162)
 32:    745.38   0.000542    2.74  0.000227  (-0.012168  0.005289 -0.007137)
 33:    786.18   0.005695   28.78  0.002261  (-0.031166 -0.030161 -0.019483)
 34:    890.08   0.001081    5.46  0.000379  (-0.000239 -0.014860 -0.012577)
 35:    944.92   0.000580    2.93  0.000192  ( 0.009871  0.008270  0.005070)
 36:    958.70   0.000426    2.15  0.000139  (-0.006184  0.009882 -0.001648)
 37:    963.99   0.000213    1.07  0.000069  (-0.004028 -0.004148 -0.005950)
 38:   1002.41   0.007809   39.46  0.002431  (-0.030576 -0.011204 -0.037021)
 39:   1013.26   0.005589   28.25  0.001721  (-0.008199  0.039436 -0.009948)
 40:   1063.29   0.003452   17.45  0.001013  (-0.019411 -0.001908 -0.025154)
 41:   1070.21   0.002458   12.42  0.000717  ( 0.011263 -0.007949 -0.022949)
 42:   1090.87   0.001813    9.16  0.000519  (-0.013022  0.017971 -0.005122)
 43:   1136.28   0.000183    0.93  0.000050  (-0.005695  0.002144  0.003641)
 44:   1151.20   0.006100   30.83  0.001654  ( 0.034188  0.018166  0.012445)
 45:   1158.82   0.004230   21.38  0.001139  ( 0.008066 -0.031289  0.009752)
 46:   1161.89   0.014135   71.43  0.003796  (-0.020647 -0.051770 -0.026267)
 47:   1184.09   0.001707    8.63  0.000450  (-0.007948 -0.015820 -0.011686)
 48:   1200.77   0.010741   54.28  0.002791  (-0.009356 -0.030277 -0.042274)
 49:   1235.34   0.007715   38.99  0.001949  (-0.003144 -0.034151  0.027796)
 50:   1277.19   0.030206  152.65  0.007380  (-0.063589  0.041141  0.040548)
 51:   1287.37   0.021691  109.62  0.005258  ( 0.064034 -0.027492  0.020048)
 52:   1368.82   0.000979    4.95  0.000223  (-0.006321 -0.013406 -0.001884)
 53:   1374.56   0.023995  121.26  0.005448  (-0.032507  0.064446 -0.015416)
 54:   1379.53   0.005420   27.39  0.001226  (-0.015708  0.031252  0.001597)
 55:   1416.06   0.008756   44.25  0.001930  (-0.036876  0.023427  0.004576)
 56:   1425.68   0.002743   13.86  0.000600  (-0.001010  0.016035  0.018502)
 57:   1440.49   0.009009   45.53  0.001952  ( 0.012869  0.019613  0.037435)
 58:   1441.98   0.006449   32.59  0.001396  (-0.009673 -0.034005 -0.012074)
 59:   1457.55   0.017084   86.34  0.003658  ( 0.044148  0.019667  0.036359)
 60:   1484.24   0.013268   67.05  0.002790  ( 0.020771 -0.047640  0.009419)
 61:   1490.00   0.002930   14.81  0.000614  ( 0.021652 -0.011665  0.002964)
 62:   1498.53   0.002172   10.98  0.000452  ( 0.021110  0.002359 -0.001060)
 63:   1502.75   0.000439    2.22  0.000091  ( 0.001755 -0.007211 -0.006011)
 64:   1507.02   0.000315    1.59  0.000065  ( 0.000397  0.007993 -0.001070)
 65:   1510.35   0.000990    5.00  0.000205  (-0.011745  0.007581 -0.003032)
 66:   1512.20   0.005960   30.12  0.001230  (-0.027786  0.004306  0.020962)
 67:   1517.57   0.004915   24.84  0.001011  (-0.025609  0.015999  0.009942)
 68:   1521.86   0.003301   16.68  0.000677  ( 0.019517  0.012461 -0.011862)
 69:   1524.12   0.005748   29.05  0.001177  (-0.003941  0.027214  0.020514)
 70:   1531.58   0.006052   30.58  0.001233  ( 0.006447  0.028256 -0.019826)
 71:   1541.76   0.010843   54.80  0.002195  ( 0.033000 -0.024255 -0.022748)
 72:   1556.57   0.015633   79.00  0.003134  ( 0.037825  0.006430  0.040769)
 73:   1691.67   0.113962  575.92  0.021023  (-0.006547 -0.142276  0.027155)
 74:   1711.25   0.101655  513.72  0.018538  ( 0.013282 -0.104393 -0.086391)
 75:   3034.93   0.006680   33.76  0.000687  (-0.011126  0.019360  0.013719)
 76:   3041.58   0.018381   92.89  0.001886  (-0.019233 -0.008810 -0.037926)
 77:   3057.76   0.005980   30.22  0.000610  (-0.015424 -0.004614 -0.018737)
 78:   3062.14   0.003357   16.96  0.000342  (-0.007894 -0.012774  0.010799)
 79:   3076.32   0.001104    5.58  0.000112  (-0.009701 -0.002748  0.003206)
 80:   3086.17   0.004482   22.65  0.000453  (-0.004515  0.009082  0.018718)
 81:   3092.56   0.014299   72.26  0.001443  ( 0.026761  0.026193 -0.006377)
 82:   3092.90   0.005389   27.23  0.000544  ( 0.014677  0.002634 -0.017926)
 83:   3095.77   0.001136    5.74  0.000115  ( 0.006500  0.004856 -0.006978)
 84:   3122.15   0.004115   20.79  0.000411  ( 0.005629 -0.010349  0.016507)
 85:   3127.38   0.011161   56.40  0.001114  (-0.001774 -0.033298  0.001334)
 86:   3138.57   0.006333   32.01  0.000630  ( 0.024817 -0.002738 -0.002517)
 87:   3148.06   0.008911   45.03  0.000883  ( 0.012120 -0.017700 -0.020572)
 88:   3151.68   0.003760   19.00  0.000372  (-0.013159  0.008300  0.011415)
 89:   3168.86   0.001972    9.97  0.000194  (-0.013610  0.000914 -0.002857)
 90:   3185.76   0.002807   14.18  0.000275  (-0.002943 -0.011870  0.011197)
 91:   3194.33   0.001111    5.61  0.000109  ( 0.009946 -0.001568 -0.002670)
 92:   3195.99   0.000454    2.30  0.000044  ( 0.000149 -0.006588  0.000969)

--------------------------
THERMOCHEMISTRY AT 298.15K
--------------------------

Temperature         ... 298.15 K
Pressure            ... 1.00 atm
Total Mass          ... 186.26 AMU

Throughout the following assumptions are being made:
  (1) The electronic state is orbitally nondegenerate
  (2) There are no thermally accessible electronically excited states
  (3) Hindered rotations indicated by low frequency modes are not
      treated as such but are treated as vibrations and this may
      cause some error
  (4) All equations used are the standard statistical mechanics
      equations for an ideal gas
  (5) All vibrations are strictly harmonic

freq.      45.66  E(vib)   ...       0.53
freq.      61.34  E(vib)   ...       0.51
freq.      78.11  E(vib)   ...       0.49
freq.      81.42  E(vib)   ...       0.48
freq.      96.03  E(vib)   ...       0.47
freq.     112.20  E(vib)   ...       0.45
freq.     144.38  E(vib)   ...       0.41
freq.     167.18  E(vib)   ...       0.39
freq.     178.09  E(vib)   ...       0.37
freq.     214.12  E(vib)   ...       0.34
freq.     227.11  E(vib)   ...       0.33
freq.     236.14  E(vib)   ...       0.32
freq.     259.15  E(vib)   ...       0.30
freq.     273.90  E(vib)   ...       0.28
freq.     311.41  E(vib)   ...       0.25
freq.     330.74  E(vib)   ...       0.24
freq.     359.83  E(vib)   ...       0.22
freq.     393.48  E(vib)   ...       0.20
freq.     427.42  E(vib)   ...       0.18
freq.     450.05  E(vib)   ...       0.17
freq.     482.59  E(vib)   ...       0.15
freq.     535.94  E(vib)   ...       0.12
freq.     578.88  E(vib)   ...       0.11
freq.     610.47  E(vib)   ...       0.10
freq.     620.68  E(vib)   ...       0.09
freq.     680.09  E(vib)   ...       0.08
freq.     745.38  E(vib)   ...       0.06
freq.     786.18  E(vib)   ...       0.05
freq.     890.08  E(vib)   ...       0.04
freq.     944.92  E(vib)   ...       0.03
freq.     958.70  E(vib)   ...       0.03
freq.     963.99  E(vib)   ...       0.03
freq.    1002.41  E(vib)   ...       0.02
freq.    1013.26  E(vib)   ...       0.02
freq.    1063.29  E(vib)   ...       0.02
freq.    1070.21  E(vib)   ...       0.02
freq.    1090.87  E(vib)   ...       0.02
freq.    1136.28  E(vib)   ...       0.01
freq.    1151.20  E(vib)   ...       0.01
freq.    1158.82  E(vib)   ...       0.01
freq.    1161.89  E(vib)   ...       0.01
freq.    1184.09  E(vib)   ...       0.01
freq.    1200.77  E(vib)   ...       0.01
freq.    1235.34  E(vib)   ...       0.01
freq.    1277.19  E(vib)   ...       0.01
freq.    1287.37  E(vib)   ...       0.01
freq.    1368.82  E(vib)   ...       0.01
freq.    1374.56  E(vib)   ...       0.01
freq.    1379.53  E(vib)   ...       0.01
freq.    1416.06  E(vib)   ...       0.00
freq.    1425.68  E(vib)   ...       0.00
freq.    1440.49  E(vib)   ...       0.00
freq.    1441.98  E(vib)   ...       0.00
freq.    1457.55  E(vib)   ...       0.00
freq.    1484.24  E(vib)   ...       0.00
freq.    1490.00  E(vib)   ...       0.00
freq.    1498.53  E(vib)   ...       0.00
freq.    1502.75  E(vib)   ...       0.00
freq.    1507.02  E(vib)   ...       0.00
freq.    1510.35  E(vib)   ...       0.00
freq.    1512.20  E(vib)   ...       0.00
freq.    1517.57  E(vib)   ...       0.00
freq.    1521.86  E(vib)   ...       0.00
freq.    1524.12  E(vib)   ...       0.00
freq.    1531.58  E(vib)   ...       0.00
freq.    1541.76  E(vib)   ...       0.00
freq.    1556.57  E(vib)   ...       0.00
freq.    1691.67  E(vib)   ...       0.00
freq.    1711.25  E(vib)   ...       0.00
freq.    3034.93  E(vib)   ...       0.00
freq.    3041.58  E(vib)   ...       0.00
freq.    3057.76  E(vib)   ...       0.00
freq.    3062.14  E(vib)   ...       0.00
freq.    3076.32  E(vib)   ...       0.00
freq.    3086.17  E(vib)   ...       0.00
freq.    3092.56  E(vib)   ...       0.00
freq.    3092.90  E(vib)   ...       0.00
freq.    3095.77  E(vib)   ...       0.00
freq.    3122.15  E(vib)   ...       0.00
freq.    3127.38  E(vib)   ...       0.00
freq.    3138.57  E(vib)   ...       0.00
freq.    3148.06  E(vib)   ...       0.00
freq.    3151.68  E(vib)   ...       0.00
freq.    3168.86  E(vib)   ...       0.00
freq.    3185.76  E(vib)   ...       0.00
freq.    3194.33  E(vib)   ...       0.00
freq.    3195.99  E(vib)   ...       0.00

------------
INNER ENERGY
------------

The inner energy is: U= E(el) + E(ZPE) + E(vib) + E(rot) + E(trans)
    E(el)   - is the total energy from the electronic structure calculation
              = E(kin-el) + E(nuc-el) + E(el-el) + E(nuc-nuc)
    E(ZPE)  - the the zero temperature vibrational energy from the frequency calculation
    E(vib)  - the the finite temperature correction to E(ZPE) due to population
              of excited vibrational states
    E(rot)  - is the rotational thermal energy
    E(trans)- is the translational thermal energy

Summary of contributions to the inner energy U:
Electronic energy                ...   -613.44842383 Eh
Zero point energy                ...      0.27282807 Eh     171.20 kcal/mol
Thermal vibrational correction   ...      0.01284336 Eh       8.06 kcal/mol
Thermal rotational correction    ...      0.00141627 Eh       0.89 kcal/mol
Thermal translational correction ...      0.00141627 Eh       0.89 kcal/mol
-----------------------------------------------------------------------
Total thermal energy                   -613.15991986 Eh

Summary of corrections to the electronic energy:
(perhaps to be used in another calculation)
Total thermal correction                  0.01567591 Eh       9.84 kcal/mol
Non-thermal (ZPE) correction              0.27282807 Eh     171.20 kcal/mol
-----------------------------------------------------------------------
Total correction                          0.28850398 Eh     181.04 kcal/mol

--------
ENTHALPY
--------

The enthalpy is H = U + kB*T
                kB is Boltzmann's constant
Total free energy                 ...   -613.15991986 Eh
Thermal Enthalpy correction       ...      0.00094421 Eh       0.59 kcal/mol
-----------------------------------------------------------------------
Total Enthalpy                    ...   -613.15897565 Eh

Note: Only C1 symmetry has been detected, increase convergence thresholds
      if your molecule has a higher symmetry. Symmetry factor of 1.0 is
      used for the rotational entropy correction.

Note: Rotational entropy computed according to Herzberg
Infrared and Raman Spectra, Chapter V,1, Van Nostrand Reinhold, 1945
Point Group:  C1, Symmetry Number:   1
Rotational constants in cm-1:     0.036153     0.019890     0.016709

Vibrational entropy computed according to the QRRHO of S. Grimme
Chem.Eur.J. 2012 18 9955

                             ****ORCA TERMINATED NORMALLY****
TOTAL RUN TIME: 0 days 0 hours 20 minutes 36 seconds 259 msec
