                         Program Version 5.0.4 -  RELEASE  -
|  1> ! OPT FREQ B3LYP 6-311G(d) D4 AUTOAUX
|  2>
|  3> %PAL NPROCS 4 END
|  4>
|  5> %maxcore 3375
|  6>
|  7> *xyzfile 0 1 /users/fjb15167/WWenergy/structures/NfeBr.xyz
|  8>
|  9>                          ****END OF INPUT****
 Total Charge           Charge          ....    0
 Multiplicity           Mult            ....    1
 Number of Electrons    NEL             ....  168
Dispersion correction           -0.076163393
FINAL SINGLE POINT ENERGY     -3378.684280406395
Dispersion correction            ... Starting D4
Dispersion correction           -0.075397180
FINAL SINGLE POINT ENERGY     -3378.685165351290
Dispersion correction            ... Starting D4
Dispersion correction           -0.075674495
FINAL SINGLE POINT ENERGY     -3378.685283998506
Dispersion correction            ... Starting D4
FINAL SINGLE POINT ENERGY     -3378.685347996176
FINAL SINGLE POINT ENERGY     -3378.685368415429
FINAL SINGLE POINT ENERGY     -3378.685386454900
FINAL SINGLE POINT ENERGY     -3378.685407527193
FINAL SINGLE POINT ENERGY     -3378.685418725438
FINAL SINGLE POINT ENERGY     -3378.685434773112
FINAL SINGLE POINT ENERGY     -3378.685439710982
Dispersion correction           -0.075610475
FINAL SINGLE POINT ENERGY     -3378.685445128337
Dispersion correction            ... Starting D4
Dispersion correction           -0.075585571
FINAL SINGLE POINT ENERGY     -3378.685446984531
Dispersion correction            ... Starting D4
                    ***********************HURRAY********************

CARTESIAN COORDINATES (ANGSTROEM)
---------------------------------
  C      3.144321    3.179168    0.320381
  H      2.411714    3.015995    1.113815
  H      2.657373    3.764101   -0.465232
  H      3.975859    3.756371    0.718716
  C      3.710496    1.881133   -0.230207
  O      4.918418    1.680759   -0.249081
  N      2.812382    0.961230   -0.709057
  C      3.309853   -0.253045   -1.353621
  H      2.945385   -0.291078   -2.382465
  H      4.395352   -0.198841   -1.370039
  C      1.358987    1.120645   -0.667266
  H      1.088424    2.164594   -0.834599
  H      0.951836    0.554867   -1.506711
  C      0.711764    0.607928    0.637128
  H      1.175157   -0.342166    0.907795
  H      0.921702    1.302834    1.455537
  C     -0.774991    0.421072    0.473195
  C     -1.261569   -0.697608   -0.213426
  C     -1.688155    1.360488    0.953184
  C     -2.626628   -0.876250   -0.411359
  H     -0.561606   -1.433701   -0.598483
  C     -3.058927    1.196977    0.764408
  H     -1.330338    2.234210    1.490950
  C     -3.513444    0.075739    0.082237
  H     -2.995773   -1.746560   -0.940503
  H     -3.760171    1.929783    1.144979
  C      2.769843   -1.525642   -0.688000
  N      3.335714   -1.930587    0.484159
  O      1.824681   -2.112241   -1.206922
  C      4.410356   -1.247784    1.189972
  H      4.055261   -0.894851    2.165454
  H      5.239159   -1.941740    1.365625
  H      4.787778   -0.390847    0.641015
  C      2.799315   -3.105366    1.155730
  H      2.343480   -2.827868    2.113326
  H      2.048370   -3.563704    0.518822
  H      3.601140   -3.823831    1.352861
  Br    -5.397518   -0.165186   -0.180319

 Multiplicity           Mult            ....    1
 Number of Electrons    NEL             ....  168
 Basis Dimension        Dim             ....  425

ORBITAL ENERGIES
----------------

  NO   OCC          E(Eh)            E(eV)
   0   2.0000    -482.823697    -13138.3007
   1   2.0000     -62.476751     -1700.0788
   2   2.0000     -56.297050     -1531.9206
   3   2.0000     -56.293224     -1531.8165
   4   2.0000     -56.293107     -1531.8133
   5   2.0000     -19.087433      -519.3955
   6   2.0000     -19.086055      -519.3580
   7   2.0000     -14.352135      -390.5415
   8   2.0000     -14.351303      -390.5188
   9   2.0000     -10.278147      -279.6826
  10   2.0000     -10.274227      -279.5759
  11   2.0000     -10.229211      -278.3510
  12   2.0000     -10.218476      -278.0589
  13   2.0000     -10.213078      -277.9120
  14   2.0000     -10.203664      -277.6558
  15   2.0000     -10.200468      -277.5689
  16   2.0000     -10.189673      -277.2751
  17   2.0000     -10.186636      -277.1925
  18   2.0000     -10.185013      -277.1483
  19   2.0000     -10.184871      -277.1444
  20   2.0000     -10.184416      -277.1321
  21   2.0000     -10.180902      -277.0364
  22   2.0000     -10.178434      -276.9693
  23   2.0000      -8.686473      -236.3710
  24   2.0000      -6.517834      -177.3593
  25   2.0000      -6.505021      -177.0106
  26   2.0000      -6.504789      -177.0043
  27   2.0000      -2.628802       -71.5333
  28   2.0000      -2.625131       -71.4335
  29   2.0000      -2.624982       -71.4294
  30   2.0000      -2.614790       -71.1521
  31   2.0000      -2.614782       -71.1518
  32   2.0000      -1.048920       -28.5426
  33   2.0000      -1.042074       -28.3563
  34   2.0000      -0.948816       -25.8186
  35   2.0000      -0.942336       -25.6423
  36   2.0000      -0.880623       -23.9630
  37   2.0000      -0.820959       -22.3394
  38   2.0000      -0.781682       -21.2706
  39   2.0000      -0.769865       -20.9491
  40   2.0000      -0.760976       -20.7072
  41   2.0000      -0.736806       -20.0495
  42   2.0000      -0.725484       -19.7414
  43   2.0000      -0.715931       -19.4815
  44   2.0000      -0.686088       -18.6694
  45   2.0000      -0.656003       -17.8507
  46   2.0000      -0.624780       -17.0011
  47   2.0000      -0.589564       -16.0428
  48   2.0000      -0.567647       -15.4464
  49   2.0000      -0.553014       -15.0483
  50   2.0000      -0.529445       -14.4069
  51   2.0000      -0.512951       -13.9581
  52   2.0000      -0.498597       -13.5675
  53   2.0000      -0.495713       -13.4890
  54   2.0000      -0.483367       -13.1531
  55   2.0000      -0.477736       -12.9999
  56   2.0000      -0.471940       -12.8421
  57   2.0000      -0.465967       -12.6796
  58   2.0000      -0.460351       -12.5268
  59   2.0000      -0.440520       -11.9872
  60   2.0000      -0.431953       -11.7541
  61   2.0000      -0.430813       -11.7230
  62   2.0000      -0.419353       -11.4112
  63   2.0000      -0.416914       -11.3448
  64   2.0000      -0.412110       -11.2141
  65   2.0000      -0.410146       -11.1606
  66   2.0000      -0.408631       -11.1194
  67   2.0000      -0.406277       -11.0554
  68   2.0000      -0.395610       -10.7651
  69   2.0000      -0.388950       -10.5839
  70   2.0000      -0.382304       -10.4030
  71   2.0000      -0.381108       -10.3705
  72   2.0000      -0.371247       -10.1021
  73   2.0000      -0.364125        -9.9083
  74   2.0000      -0.353165        -9.6101
  75   2.0000      -0.348029        -9.4704
  76   2.0000      -0.310548        -8.4504
  77   2.0000      -0.288370        -7.8469
  78   2.0000      -0.271936        -7.3998
  79   2.0000      -0.266448        -7.2504
  80   2.0000      -0.263464        -7.1692
  81   2.0000      -0.253277        -6.8920
  82   2.0000      -0.250350        -6.8124
  83   2.0000      -0.238641        -6.4937
  84   0.0000      -0.021801        -0.5932
  85   0.0000      -0.018866        -0.5134
  86   0.0000      -0.004771        -0.1298
  87   0.0000       0.001091         0.0297
  88   0.0000       0.014553         0.3960

MULLIKEN ATOMIC CHARGES
-----------------------
   0 C :   -0.750234
   1 H :    0.229346
   2 H :    0.237717
   3 H :    0.247506
   4 C :    0.439011
   5 O :   -0.381593
   6 N :   -0.308472
   7 C :   -0.464366
   8 H :    0.253696
   9 H :    0.273308
  10 C :   -0.326448
  11 H :    0.233181
  12 H :    0.259847
  13 C :   -0.505336
  14 H :    0.259544
  15 H :    0.215979
  16 C :    0.061752
  17 C :   -0.214272
  18 C :   -0.213203
  19 C :   -0.162058
  20 H :    0.243462
  21 C :   -0.157158
  22 H :    0.190491
  23 C :   -0.117023
  24 H :    0.217931
  25 H :    0.214871
  26 C :    0.432035
  27 N :   -0.314460
  28 O :   -0.387013
  29 C :   -0.533304
  30 H :    0.210201
  31 H :    0.217447
  32 H :    0.275042
  33 C :   -0.521758
  34 H :    0.211146
  35 H :    0.253787
  36 H :    0.217831
  37 Br:   -0.038433
Sum of atomic charges:    0.0000000

LOEWDIN ATOMIC CHARGES
----------------------
   0 C :   -0.314787
   1 H :    0.117093
   2 H :    0.126343
   3 H :    0.127645
   4 C :   -0.075688
   5 O :   -0.137798
   6 N :    0.048800
   7 C :   -0.170051
   8 H :    0.116760
   9 H :    0.126254
  10 C :   -0.147182
  11 H :    0.108085
  12 H :    0.116248
  13 C :   -0.190373
  14 H :    0.115059
  15 H :    0.101074
  16 C :   -0.044003
  17 C :   -0.091347
  18 C :   -0.098332
  19 C :   -0.110866
  20 H :    0.120387
  21 C :   -0.115138
  22 H :    0.107033
  23 C :   -0.142449
  24 H :    0.116910
  25 H :    0.114868
  26 C :   -0.087772
  27 N :    0.037687
  28 O :   -0.141509
  29 C :   -0.247495
  30 H :    0.102383
  31 H :    0.105817
  32 H :    0.120891
  33 C :   -0.245555
  34 H :    0.101998
  35 H :    0.123655
  36 H :    0.106013
  37 Br:    0.099344

  Mayer bond orders larger than 0.100000
B(  0-C ,  1-H ) :   0.9131 B(  0-C ,  2-H ) :   0.9162 B(  0-C ,  3-H ) :   0.9324
B(  0-C ,  4-C ) :   0.9290 B(  4-C ,  5-O ) :   1.8876 B(  4-C ,  6-N ) :   1.1756
B(  6-N ,  7-C ) :   0.9554 B(  6-N , 10-C ) :   0.9365 B(  7-C ,  8-H ) :   0.9189
B(  7-C ,  9-H ) :   0.8894 B(  7-C , 26-C ) :   0.8907 B( 10-C , 11-H ) :   0.9186
B( 10-C , 12-H ) :   0.9132 B( 10-C , 13-C ) :   0.9221 B( 13-C , 14-H ) :   0.9193
B( 13-C , 15-H ) :   0.9430 B( 13-C , 16-C ) :   0.9691 B( 16-C , 17-C ) :   1.4120
B( 16-C , 18-C ) :   1.4281 B( 17-C , 19-C ) :   1.4544 B( 17-C , 20-H ) :   0.8945
B( 18-C , 21-C ) :   1.4407 B( 18-C , 22-H ) :   0.9353 B( 19-C , 23-C ) :   1.3901
B( 19-C , 24-H ) :   0.9266 B( 21-C , 23-C ) :   1.4104 B( 21-C , 25-H ) :   0.9261
B( 23-C , 37-Br) :   1.0339 B( 26-C , 27-N ) :   1.1884 B( 26-C , 28-O ) :   1.8602
B( 27-N , 29-C ) :   0.9536 B( 27-N , 33-C ) :   0.9665 B( 29-C , 30-H ) :   0.9235
B( 29-C , 31-H ) :   0.9257 B( 29-C , 32-H ) :   0.8675 B( 33-C , 34-H ) :   0.9253
B( 33-C , 35-H ) :   0.9047 B( 33-C , 36-H ) :   0.9284

Dispersion correction           -0.075585831
FINAL SINGLE POINT ENERGY     -3378.685447598416

DIPOLE MOMENT
-------------
                                X             Y             Z
Electronic contribution:    -83.97492      -2.50892      -7.53619
Nuclear contribution   :     84.49876       2.88769       8.37164
                        -----------------------------------------
Total Dipole Moment    :      0.52384       0.37878       0.83546
                        -----------------------------------------
Magnitude (a.u.)       :      1.05635
Magnitude (Debye)      :      2.68502

Dispersion correction in the Hessian             ... Starting D4

VIBRATIONAL FREQUENCIES
-----------------------

Scaling factor for frequencies =  1.000000000  (already applied!)

   0:         0.00 cm**-1
   1:         0.00 cm**-1
   2:         0.00 cm**-1
   3:         0.00 cm**-1
   4:         0.00 cm**-1
   5:         0.00 cm**-1
   6:        21.81 cm**-1
   7:        32.43 cm**-1
   8:        39.01 cm**-1
   9:        43.91 cm**-1
  10:        66.95 cm**-1
  11:        76.10 cm**-1
  12:       101.03 cm**-1
  13:       105.87 cm**-1
  14:       120.35 cm**-1
  15:       129.17 cm**-1
  16:       143.81 cm**-1
  17:       150.56 cm**-1
  18:       161.56 cm**-1
  19:       210.85 cm**-1
  20:       223.90 cm**-1
  21:       247.89 cm**-1
  22:       280.46 cm**-1
  23:       285.93 cm**-1
  24:       332.46 cm**-1
  25:       363.73 cm**-1
  26:       365.48 cm**-1
  27:       383.37 cm**-1
  28:       394.07 cm**-1
  29:       418.22 cm**-1
  30:       432.03 cm**-1
  31:       469.27 cm**-1
  32:       487.26 cm**-1
  33:       519.63 cm**-1
  34:       581.15 cm**-1
  35:       596.43 cm**-1
  36:       611.65 cm**-1
  37:       647.43 cm**-1
  38:       654.17 cm**-1
  39:       698.34 cm**-1
  40:       725.97 cm**-1
  41:       761.65 cm**-1
  42:       781.68 cm**-1
  43:       817.10 cm**-1
  44:       822.44 cm**-1
  45:       845.47 cm**-1
  46:       866.53 cm**-1
  47:       946.41 cm**-1
  48:       956.46 cm**-1
  49:       983.63 cm**-1
  50:       996.32 cm**-1
  51:      1006.18 cm**-1
  52:      1023.42 cm**-1
  53:      1026.79 cm**-1
  54:      1030.19 cm**-1
  55:      1059.96 cm**-1
  56:      1088.12 cm**-1
  57:      1088.51 cm**-1
  58:      1093.11 cm**-1
  59:      1136.60 cm**-1
  60:      1139.65 cm**-1
  61:      1164.90 cm**-1
  62:      1183.89 cm**-1
  63:      1213.99 cm**-1
  64:      1215.85 cm**-1
  65:      1228.93 cm**-1
  66:      1246.81 cm**-1
  67:      1280.51 cm**-1
  68:      1294.40 cm**-1
  69:      1321.53 cm**-1
  70:      1329.50 cm**-1
  71:      1334.19 cm**-1
  72:      1355.38 cm**-1
  73:      1371.86 cm**-1
  74:      1400.50 cm**-1
  75:      1410.15 cm**-1
  76:      1440.54 cm**-1
  77:      1445.19 cm**-1
  78:      1450.45 cm**-1
  79:      1464.32 cm**-1
  80:      1483.94 cm**-1
  81:      1491.46 cm**-1
  82:      1504.79 cm**-1
  83:      1508.16 cm**-1
  84:      1510.63 cm**-1
  85:      1515.27 cm**-1
  86:      1525.34 cm**-1
  87:      1528.02 cm**-1
  88:      1528.60 cm**-1
  89:      1536.13 cm**-1
  90:      1560.48 cm**-1
  91:      1617.01 cm**-1
  92:      1641.61 cm**-1
  93:      1714.67 cm**-1
  94:      1723.60 cm**-1
  95:      3009.05 cm**-1
  96:      3016.85 cm**-1
  97:      3044.86 cm**-1
  98:      3050.63 cm**-1
  99:      3053.92 cm**-1
 100:      3063.48 cm**-1
 101:      3068.18 cm**-1
 102:      3071.65 cm**-1
 103:      3098.92 cm**-1
 104:      3104.51 cm**-1
 105:      3118.74 cm**-1
 106:      3151.78 cm**-1
 107:      3154.87 cm**-1
 108:      3158.33 cm**-1
 109:      3169.46 cm**-1
 110:      3171.42 cm**-1
 111:      3177.09 cm**-1
 112:      3199.93 cm**-1
 113:      3201.18 cm**-1

IR SPECTRUM
-----------

 Mode   freq       eps      Int      T**2         TX        TY        TZ
       cm**-1   L/(mol*cm) km/mol    a.u.
----------------------------------------------------------------------------
  6:     21.81   0.000039    0.20  0.000554  ( 0.004183 -0.019422 -0.012607)
  7:     32.43   0.000503    2.54  0.004841  ( 0.064667 -0.010425 -0.023460)
  8:     39.01   0.000223    1.13  0.001784  ( 0.005428 -0.022199 -0.035527)
  9:     43.91   0.000212    1.07  0.001505  ( 0.025972 -0.004358 -0.028488)
 10:     66.95   0.000473    2.39  0.002206  (-0.015050  0.034683  0.027860)
 11:     76.10   0.000136    0.69  0.000557  ( 0.009861 -0.019241 -0.009485)
 12:    101.03   0.000706    3.57  0.002180  ( 0.028973 -0.023450 -0.028116)
 13:    105.87   0.000573    2.89  0.001688  (-0.021046  0.032357 -0.014065)
 14:    120.35   0.001621    8.19  0.004202  (-0.004475 -0.052845  0.037271)
 15:    129.17   0.000320    1.62  0.000773  ( 0.013902 -0.023921  0.002784)
 16:    143.81   0.000083    0.42  0.000180  (-0.004719  0.009118 -0.008660)
 17:    150.56   0.000346    1.75  0.000716  (-0.002371  0.026418 -0.003575)
 18:    161.56   0.000089    0.45  0.000173  ( 0.000324 -0.011264 -0.006774)
 19:    210.85   0.000285    1.44  0.000422  ( 0.013760 -0.011187 -0.010347)
 20:    223.90   0.000071    0.36  0.000099  (-0.005603  0.003206  0.007548)
 21:    247.89   0.000317    1.60  0.000399  (-0.005603  0.015123  0.011779)
 22:    280.46   0.001673    8.46  0.001862  (-0.028109  0.032396  0.004725)
 23:    285.93   0.000186    0.94  0.000203  ( 0.006133 -0.011007 -0.006631)
 24:    332.46   0.000124    0.63  0.000117  (-0.000427  0.001569 -0.010678)
 25:    363.73   0.001248    6.31  0.001071  (-0.010280  0.021657 -0.022279)
 26:    365.48   0.000782    3.95  0.000668  ( 0.022557  0.008734  0.009106)
 27:    383.37   0.000539    2.72  0.000439  (-0.015682 -0.001945 -0.013753)
 28:    394.07   0.002077   10.50  0.001645  ( 0.026827  0.024066 -0.018607)
 29:    418.22   0.000013    0.06  0.000010  ( 0.002886  0.000213  0.001092)
 30:    432.03   0.000214    1.08  0.000154  ( 0.011862  0.000959 -0.003560)
 31:    469.27   0.001698    8.58  0.001129  (-0.032064 -0.002438  0.009762)
 32:    487.26   0.002719   13.74  0.001742  (-0.018171  0.034544  0.014769)
 33:    519.63   0.004447   22.47  0.002670  ( 0.001013  0.017518 -0.048606)
 34:    581.15   0.002161   10.92  0.001160  ( 0.006117  0.028083 -0.018281)
 35:    596.43   0.001225    6.19  0.000641  (-0.013707 -0.018976  0.009655)
 36:    611.65   0.001661    8.39  0.000847  ( 0.009592  0.010412 -0.025437)
 37:    647.43   0.000631    3.19  0.000304  ( 0.014361  0.005353  0.008323)
 38:    654.17   0.003425   17.31  0.001634  ( 0.035791  0.009609  0.016136)
 39:    698.34   0.000309    1.56  0.000138  (-0.009916  0.005669 -0.002792)
 40:    725.97   0.000499    2.52  0.000214  (-0.006502 -0.010556  0.007783)
 41:    761.65   0.001964    9.93  0.000805  (-0.002856 -0.024079  0.014724)
 42:    781.68   0.001409    7.12  0.000563  ( 0.019027 -0.010089 -0.009941)
 43:    817.10   0.006204   31.35  0.002369  (-0.024874  0.020450 -0.036504)
 44:    822.44   0.001459    7.37  0.000553  ( 0.020556  0.004945 -0.010315)
 45:    845.47   0.000348    1.76  0.000128  (-0.000050 -0.003333  0.010827)
 46:    866.53   0.003170   16.02  0.001142  ( 0.006615  0.020631 -0.025927)
 47:    946.41   0.000049    0.25  0.000016  (-0.001328  0.001751 -0.003353)
 48:    956.46   0.000351    1.77  0.000114  ( 0.004258 -0.007983  0.005704)
 49:    983.63   0.000021    0.11  0.000007  (-0.000485 -0.002559  0.000094)
 50:    996.32   0.003503   17.70  0.001097  (-0.028334  0.003935 -0.016696)
 51:   1006.18   0.005227   26.41  0.001621  ( 0.017423  0.028976 -0.021861)
 52:   1023.42   0.003698   18.69  0.001128  ( 0.012593  0.027886  0.013839)
 53:   1026.79   0.005714   28.88  0.001737  ( 0.032438  0.017407 -0.019532)
 54:   1030.19   0.007816   39.50  0.002368  ( 0.045218  0.008211  0.015984)
 55:   1059.96   0.000766    3.87  0.000226  (-0.000279  0.006282 -0.013639)
 56:   1088.12   0.006640   33.56  0.001904  ( 0.041424  0.009806  0.009602)
 57:   1088.51   0.000262    1.32  0.000075  ( 0.003769  0.005677  0.005359)
 58:   1093.11   0.001725    8.72  0.000493  ( 0.003663 -0.011236  0.018787)
 59:   1136.60   0.000082    0.41  0.000023  (-0.001478 -0.003598 -0.002719)
 60:   1139.65   0.002129   10.76  0.000583  (-0.015603  0.001699 -0.018344)
 61:   1164.90   0.010367   52.39  0.002777  ( 0.039904 -0.024296  0.024385)
 62:   1183.89   0.000558    2.82  0.000147  ( 0.009111 -0.007999  0.000379)
 63:   1213.99   0.002342   11.83  0.000602  (-0.002007 -0.010472 -0.022096)
 64:   1215.85   0.003412   17.24  0.000876  (-0.006327 -0.013078 -0.025781)
 65:   1228.93   0.002833   14.32  0.000719  (-0.023833 -0.012277 -0.000805)
 66:   1246.81   0.007483   37.82  0.001873  ( 0.031644  0.029146  0.004698)
 67:   1280.51   0.005976   30.20  0.001456  ( 0.007843  0.023622 -0.028928)
 68:   1294.40   0.021436  108.33  0.005168  (-0.022468 -0.066274 -0.016457)
 69:   1321.53   0.000144    0.73  0.000034  (-0.005426 -0.002113  0.000301)
 70:   1329.50   0.000243    1.23  0.000057  ( 0.006367  0.004004  0.000651)
 71:   1334.19   0.001291    6.52  0.000302  ( 0.005603  0.016434  0.000628)
 72:   1355.38   0.000968    4.89  0.000223  ( 0.009906  0.010988  0.002012)
 73:   1371.86   0.000129    0.65  0.000029  ( 0.000818 -0.004453  0.002987)
 74:   1400.50   0.005371   27.14  0.001197  ( 0.032055 -0.004355 -0.012257)
 75:   1410.15   0.007569   38.25  0.001675  ( 0.029494  0.026317  0.010607)
 76:   1440.54   0.014398   72.76  0.003119  (-0.017930  0.037950 -0.036841)
 77:   1445.19   0.002646   13.37  0.000571  (-0.006015 -0.020528 -0.010671)
 78:   1450.45   0.010768   54.41  0.002317  (-0.004496 -0.045053  0.016329)
 79:   1464.32   0.024226  122.43  0.005163  (-0.054956 -0.043042 -0.017030)
 80:   1483.94   0.005559   28.09  0.001169  (-0.033756 -0.005308 -0.001207)
 81:   1491.46   0.001321    6.68  0.000276  ( 0.008882  0.004259 -0.013395)
 82:   1504.79   0.001384    6.99  0.000287  (-0.001713 -0.000559 -0.016845)
 83:   1508.16   0.002828   14.29  0.000585  ( 0.001439  0.023524  0.005455)
 84:   1510.63   0.000889    4.49  0.000184  ( 0.005244  0.006686 -0.010561)
 85:   1515.27   0.000758    3.83  0.000156  (-0.003108  0.011660  0.003245)
 86:   1525.34   0.004348   21.97  0.000890  (-0.004937  0.016633  0.024261)
 87:   1528.02   0.017690   89.40  0.003613  ( 0.058366  0.008353  0.011682)
 88:   1528.60   0.005510   27.85  0.001125  ( 0.027895 -0.015869 -0.009747)
 89:   1536.13   0.000861    4.35  0.000175  (-0.003937  0.000320 -0.012619)
 90:   1560.48   0.010019   50.63  0.002004  (-0.002668  0.025132 -0.036944)
 91:   1617.01   0.000056    0.28  0.000011  (-0.001138  0.003075 -0.000274)
 92:   1641.61   0.000697    3.52  0.000133  ( 0.010768  0.002251  0.003397)
 93:   1714.67   0.061992  313.28  0.011282  ( 0.078504  0.013474  0.070270)
 94:   1723.60   0.088251  445.99  0.015978  ( 0.125262  0.009498  0.014050)
 95:   3009.05   0.005087   25.71  0.000528  (-0.018466 -0.007658 -0.011310)
 96:   3016.85   0.017323   87.54  0.001792  ( 0.008162 -0.017220  0.037799)
 97:   3044.86   0.001522    7.69  0.000156  (-0.011586  0.003726 -0.002803)
 98:   3050.63   0.003952   19.97  0.000404  (-0.011114 -0.009180 -0.014016)
 99:   3053.92   0.011378   57.50  0.001163  ( 0.025601 -0.021238 -0.007498)
100:   3063.48   0.007442   37.61  0.000758  ( 0.019414 -0.018805 -0.005246)
101:   3068.18   0.002942   14.87  0.000299  (-0.007586  0.010578  0.011394)
102:   3071.65   0.006250   31.58  0.000635  ( 0.011818 -0.005494  0.021566)
103:   3098.92   0.001102    5.57  0.000111  ( 0.007294 -0.004796  0.005895)
104:   3104.51   0.002829   14.30  0.000284  ( 0.005015  0.005046 -0.015290)
105:   3118.74   0.004719   23.85  0.000472  (-0.000082  0.021457  0.003426)
106:   3151.78   0.000679    3.43  0.000067  ( 0.002771 -0.007312  0.002465)
107:   3154.87   0.002481   12.54  0.000245  ( 0.014224  0.005888  0.002901)
108:   3158.33   0.003159   15.96  0.000312  ( 0.008747  0.012789  0.008489)
109:   3169.46   0.000073    0.37  0.000007  (-0.002271  0.001330  0.000490)
110:   3171.42   0.000501    2.53  0.000049  ( 0.003438  0.006092  0.000625)
111:   3177.09   0.001278    6.46  0.000126  ( 0.003697 -0.010508  0.001215)
112:   3199.93   0.001510    7.63  0.000147  (-0.001946  0.010290  0.006135)
113:   3201.18   0.000276    1.39  0.000027  ( 0.005072  0.000989  0.000416)

--------------------------
THERMOCHEMISTRY AT 298.15K
--------------------------

Temperature         ... 298.15 K
Pressure            ... 1.00 atm
Total Mass          ... 327.22 AMU

Throughout the following assumptions are being made:
  (1) The electronic state is orbitally nondegenerate
  (2) There are no thermally accessible electronically excited states
  (3) Hindered rotations indicated by low frequency modes are not
      treated as such but are treated as vibrations and this may
      cause some error
  (4) All equations used are the standard statistical mechanics
      equations for an ideal gas
  (5) All vibrations are strictly harmonic

freq.      21.81  E(vib)   ...       0.56
freq.      32.43  E(vib)   ...       0.55
freq.      39.01  E(vib)   ...       0.54
freq.      43.91  E(vib)   ...       0.53
freq.      66.95  E(vib)   ...       0.50
freq.      76.10  E(vib)   ...       0.49
freq.     101.03  E(vib)   ...       0.46
freq.     105.87  E(vib)   ...       0.45
freq.     120.35  E(vib)   ...       0.44
freq.     129.17  E(vib)   ...       0.43
freq.     143.81  E(vib)   ...       0.41
freq.     150.56  E(vib)   ...       0.40
freq.     161.56  E(vib)   ...       0.39
freq.     210.85  E(vib)   ...       0.34
freq.     223.90  E(vib)   ...       0.33
freq.     247.89  E(vib)   ...       0.31
freq.     280.46  E(vib)   ...       0.28
freq.     285.93  E(vib)   ...       0.27
freq.     332.46  E(vib)   ...       0.24
freq.     363.73  E(vib)   ...       0.22
freq.     365.48  E(vib)   ...       0.22
freq.     383.37  E(vib)   ...       0.20
freq.     394.07  E(vib)   ...       0.20
freq.     418.22  E(vib)   ...       0.18
freq.     432.03  E(vib)   ...       0.18
freq.     469.27  E(vib)   ...       0.16
freq.     487.26  E(vib)   ...       0.15
freq.     519.63  E(vib)   ...       0.13
freq.     581.15  E(vib)   ...       0.11
freq.     596.43  E(vib)   ...       0.10
freq.     611.65  E(vib)   ...       0.10
freq.     647.43  E(vib)   ...       0.09
freq.     654.17  E(vib)   ...       0.08
freq.     698.34  E(vib)   ...       0.07
freq.     725.97  E(vib)   ...       0.06
freq.     761.65  E(vib)   ...       0.06
freq.     781.68  E(vib)   ...       0.05
freq.     817.10  E(vib)   ...       0.05
freq.     822.44  E(vib)   ...       0.05
freq.     845.47  E(vib)   ...       0.04
freq.     866.53  E(vib)   ...       0.04
freq.     946.41  E(vib)   ...       0.03
freq.     956.46  E(vib)   ...       0.03
freq.     983.63  E(vib)   ...       0.02
freq.     996.32  E(vib)   ...       0.02
freq.    1006.18  E(vib)   ...       0.02
freq.    1023.42  E(vib)   ...       0.02
freq.    1026.79  E(vib)   ...       0.02
freq.    1030.19  E(vib)   ...       0.02
freq.    1059.96  E(vib)   ...       0.02
freq.    1088.12  E(vib)   ...       0.02
freq.    1088.51  E(vib)   ...       0.02
freq.    1093.11  E(vib)   ...       0.02
freq.    1136.60  E(vib)   ...       0.01
freq.    1139.65  E(vib)   ...       0.01
freq.    1164.90  E(vib)   ...       0.01
freq.    1183.89  E(vib)   ...       0.01
freq.    1213.99  E(vib)   ...       0.01
freq.    1215.85  E(vib)   ...       0.01
freq.    1228.93  E(vib)   ...       0.01
freq.    1246.81  E(vib)   ...       0.01
freq.    1280.51  E(vib)   ...       0.01
freq.    1294.40  E(vib)   ...       0.01
freq.    1321.53  E(vib)   ...       0.01
freq.    1329.50  E(vib)   ...       0.01
freq.    1334.19  E(vib)   ...       0.01
freq.    1355.38  E(vib)   ...       0.01
freq.    1371.86  E(vib)   ...       0.01
freq.    1400.50  E(vib)   ...       0.00
freq.    1410.15  E(vib)   ...       0.00
freq.    1440.54  E(vib)   ...       0.00
freq.    1445.19  E(vib)   ...       0.00
freq.    1450.45  E(vib)   ...       0.00
freq.    1464.32  E(vib)   ...       0.00
freq.    1483.94  E(vib)   ...       0.00
freq.    1491.46  E(vib)   ...       0.00
freq.    1504.79  E(vib)   ...       0.00
freq.    1508.16  E(vib)   ...       0.00
freq.    1510.63  E(vib)   ...       0.00
freq.    1515.27  E(vib)   ...       0.00
freq.    1525.34  E(vib)   ...       0.00
freq.    1528.02  E(vib)   ...       0.00
freq.    1528.60  E(vib)   ...       0.00
freq.    1536.13  E(vib)   ...       0.00
freq.    1560.48  E(vib)   ...       0.00
freq.    1617.01  E(vib)   ...       0.00
freq.    1641.61  E(vib)   ...       0.00
freq.    1714.67  E(vib)   ...       0.00
freq.    1723.60  E(vib)   ...       0.00
freq.    3009.05  E(vib)   ...       0.00
freq.    3016.85  E(vib)   ...       0.00
freq.    3044.86  E(vib)   ...       0.00
freq.    3050.63  E(vib)   ...       0.00
freq.    3053.92  E(vib)   ...       0.00
freq.    3063.48  E(vib)   ...       0.00
freq.    3068.18  E(vib)   ...       0.00
freq.    3071.65  E(vib)   ...       0.00
freq.    3098.92  E(vib)   ...       0.00
freq.    3104.51  E(vib)   ...       0.00
freq.    3118.74  E(vib)   ...       0.00
freq.    3151.78  E(vib)   ...       0.00
freq.    3154.87  E(vib)   ...       0.00
freq.    3158.33  E(vib)   ...       0.00
freq.    3169.46  E(vib)   ...       0.00
freq.    3171.42  E(vib)   ...       0.00
freq.    3177.09  E(vib)   ...       0.00
freq.    3199.93  E(vib)   ...       0.00
freq.    3201.18  E(vib)   ...       0.00

------------
INNER ENERGY
------------

The inner energy is: U= E(el) + E(ZPE) + E(vib) + E(rot) + E(trans)
    E(el)   - is the total energy from the electronic structure calculation
              = E(kin-el) + E(nuc-el) + E(el-el) + E(nuc-nuc)
    E(ZPE)  - the the zero temperature vibrational energy from the frequency calculation
    E(vib)  - the the finite temperature correction to E(ZPE) due to population
              of excited vibrational states
    E(rot)  - is the rotational thermal energy
    E(trans)- is the translational thermal energy

Summary of contributions to the inner energy U:
Electronic energy                ...  -3378.68544760 Eh
Zero point energy                ...      0.31488825 Eh     197.59 kcal/mol
Thermal vibrational correction   ...      0.01736087 Eh      10.89 kcal/mol
Thermal rotational correction    ...      0.00141627 Eh       0.89 kcal/mol
Thermal translational correction ...      0.00141627 Eh       0.89 kcal/mol
-----------------------------------------------------------------------
Total thermal energy                  -3378.35036593 Eh

Summary of corrections to the electronic energy:
(perhaps to be used in another calculation)
Total thermal correction                  0.02019341 Eh      12.67 kcal/mol
Non-thermal (ZPE) correction              0.31488825 Eh     197.59 kcal/mol
-----------------------------------------------------------------------
Total correction                          0.33508166 Eh     210.27 kcal/mol

--------
ENTHALPY
--------

Rotational constants in cm-1:     0.019766     0.003648     0.003279

                             ****ORCA TERMINATED NORMALLY****
TOTAL RUN TIME: 0 days 1 hours 3 minutes 49 seconds 906 msec
