                         Program Version 5.0.4 -  RELEASE  -
|  1> ! OPT FREQ B3LYP 6-31G(d) D4 AUTOAUX CPCM(water)
|  2>
|  3> %PAL NPROCS 4 END
|  4>
|  5> %maxcore 3375
|  6>
|  7> *xyzfile 0 1 /users/fjb15167/WWenergy/structures/Nt.xyz
|  8>
|  9>                          ****END OF INPUT****
 Total Charge           Charge          ....    0
 Multiplicity           Mult            ....    1
 Number of Electrons    NEL             ....  102
Dispersion correction           -0.046660892
FINAL SINGLE POINT ENERGY      -649.347624171904
Dispersion correction            ... Starting D4
Dispersion correction           -0.046285743
FINAL SINGLE POINT ENERGY      -649.348613323809
Dispersion correction            ... Starting D4
Dispersion correction           -0.046238693
FINAL SINGLE POINT ENERGY      -649.348964307129
Dispersion correction            ... Starting D4
FINAL SINGLE POINT ENERGY      -649.349081313849
FINAL SINGLE POINT ENERGY      -649.349143776651
FINAL SINGLE POINT ENERGY      -649.349166701976
FINAL SINGLE POINT ENERGY      -649.349179369262
FINAL SINGLE POINT ENERGY      -649.349186575904
FINAL SINGLE POINT ENERGY      -649.349196452837
FINAL SINGLE POINT ENERGY      -649.349205959077
FINAL SINGLE POINT ENERGY      -649.349223523186
FINAL SINGLE POINT ENERGY      -649.349240881903
FINAL SINGLE POINT ENERGY      -649.349240004214
FINAL SINGLE POINT ENERGY      -649.349230951109
FINAL SINGLE POINT ENERGY      -649.349239767007
FINAL SINGLE POINT ENERGY      -649.349240311685
FINAL SINGLE POINT ENERGY      -649.349237002217
Dispersion correction           -0.046211477
FINAL SINGLE POINT ENERGY      -649.349243417618
Dispersion correction            ... Starting D4
Dispersion correction           -0.046216090
FINAL SINGLE POINT ENERGY      -649.349246163999
Dispersion correction            ... Starting D4
                    ***********************HURRAY********************

CARTESIAN COORDINATES (ANGSTROEM)
---------------------------------
  C      2.836914    1.403342   -0.862763
  H      3.526171    0.797329   -0.276088
  H      3.158093    2.448201   -0.861337
  H      2.848221    1.053492   -1.901870
  C      1.415783    1.362654   -0.337188
  O      0.656745    2.318714   -0.532007
  N      0.986557    0.266480    0.371037
  C     -0.388673    0.305087    0.837534
  H     -0.482904   -0.346240    1.710930
  H     -0.620236    1.324847    1.150662
  C      1.728704   -0.981298    0.560668
  H      1.047591   -1.626137    1.128960
  C      2.087727   -1.717575   -0.729808
  H      1.180180   -1.873320   -1.318115
  H      2.814973   -1.168040   -1.331883
  C     -1.377441   -0.137430   -0.258472
  N     -2.700490   -0.077358    0.045532
  O     -0.962625   -0.525740   -1.356190
  C     -3.253192    0.353090    1.324062
  H     -3.838003   -0.461048    1.770720
  H     -2.472641    0.640960    2.025362
  H     -3.919191    1.212000    1.173099
  C     -3.691370   -0.485855   -0.943128
  H     -4.381151    0.342511   -1.146871
  H     -3.179425   -0.770446   -1.860837
  H     -4.272915   -1.336953   -0.566875
  O      2.871339   -0.688465    1.364516
  H      3.454725   -1.465819    1.333464
  H      2.519533   -2.693984   -0.479114

 Multiplicity           Mult            ....    1
 Number of Electrons    NEL             ....  102
 Basis Dimension        Dim             ....  214

ORBITAL ENERGIES
----------------

  NO   OCC          E(Eh)            E(eV)
   0   2.0000     -19.140324      -520.8347
   1   2.0000     -19.106742      -519.9209
   2   2.0000     -19.105910      -519.8982
   3   2.0000     -14.358096      -390.7036
   4   2.0000     -14.354159      -390.5965
   5   2.0000     -10.280612      -279.7497
   6   2.0000     -10.279460      -279.7183
   7   2.0000     -10.265752      -279.3453
   8   2.0000     -10.213281      -277.9175
   9   2.0000     -10.203085      -277.6400
  10   2.0000     -10.195401      -277.4310
  11   2.0000     -10.165797      -276.6254
  12   2.0000     -10.161480      -276.5079
  13   2.0000      -1.037930       -28.2435
  14   2.0000      -1.025629       -27.9088
  15   2.0000      -1.018032       -27.7021
  16   2.0000      -0.928489       -25.2655
  17   2.0000      -0.919652       -25.0250
  18   2.0000      -0.758342       -20.6355
  19   2.0000      -0.738552       -20.0970
  20   2.0000      -0.719396       -19.5758
  21   2.0000      -0.705907       -19.2087
  22   2.0000      -0.668847       -18.2003
  23   2.0000      -0.643906       -17.5216
  24   2.0000      -0.553474       -15.0608
  25   2.0000      -0.522100       -14.2071
  26   2.0000      -0.509796       -13.8722
  27   2.0000      -0.504304       -13.7228
  28   2.0000      -0.489477       -13.3193
  29   2.0000      -0.471543       -12.8313
  30   2.0000      -0.464100       -12.6288
  31   2.0000      -0.454994       -12.3810
  32   2.0000      -0.436161       -11.8685
  33   2.0000      -0.425491       -11.5782
  34   2.0000      -0.418883       -11.3984
  35   2.0000      -0.409098       -11.1321
  36   2.0000      -0.400903       -10.9091
  37   2.0000      -0.396207       -10.7813
  38   2.0000      -0.393466       -10.7068
  39   2.0000      -0.389533       -10.5997
  40   2.0000      -0.376078       -10.2336
  41   2.0000      -0.374298       -10.1852
  42   2.0000      -0.371743       -10.1156
  43   2.0000      -0.353559        -9.6208
  44   2.0000      -0.342465        -9.3190
  45   2.0000      -0.336914        -9.1679
  46   2.0000      -0.275168        -7.4877
  47   2.0000      -0.256621        -6.9830
  48   2.0000      -0.249798        -6.7974
  49   2.0000      -0.239949        -6.5293
  50   2.0000      -0.236183        -6.4269
  51   0.0000       0.022933         0.6240
  52   0.0000       0.030256         0.8233
  53   0.0000       0.087175         2.3722
  54   0.0000       0.102286         2.7834
  55   0.0000       0.117523         3.1980

MULLIKEN ATOMIC CHARGES
-----------------------
   0 C :   -0.560005
   1 H :    0.186801
   2 H :    0.176819
   3 H :    0.194617
   4 C :    0.531701
   5 O :   -0.541652
   6 N :   -0.373535
   7 C :   -0.286514
   8 H :    0.206353
   9 H :    0.203467
  10 C :    0.266963
  11 H :    0.157706
  12 C :   -0.499608
  13 H :    0.174346
  14 H :    0.170360
  15 C :    0.543211
  16 N :   -0.369237
  17 O :   -0.531587
  18 C :   -0.335919
  19 H :    0.177583
  20 H :    0.196999
  21 H :    0.177914
  22 C :   -0.330423
  23 H :    0.172102
  24 H :    0.185095
  25 H :    0.171706
  26 O :   -0.663561
  27 H :    0.435809
  28 H :    0.162491
Sum of atomic charges:    0.0000000

LOEWDIN ATOMIC CHARGES
----------------------
   0 C :   -0.401155
   1 H :    0.147692
   2 H :    0.149597
   3 H :    0.157679
   4 C :    0.126075
   5 O :   -0.337459
   6 N :   -0.060671
   7 C :   -0.192021
   8 H :    0.157764
   9 H :    0.158962
  10 C :    0.045729
  11 H :    0.128670
  12 C :   -0.393402
  13 H :    0.144221
  14 H :    0.138186
  15 C :    0.103114
  16 N :   -0.073974
  17 O :   -0.335290
  18 C :   -0.276030
  19 H :    0.137060
  20 H :    0.149772
  21 H :    0.137347
  22 C :   -0.278874
  23 H :    0.134868
  24 H :    0.147684
  25 H :    0.134194
  26 O :   -0.421950
  27 H :    0.335140
  28 H :    0.137072

  Mayer bond orders larger than 0.100000
B(  0-C ,  1-H ) :   0.9049 B(  0-C ,  2-H ) :   0.9358 B(  0-C ,  3-H ) :   0.9226
B(  0-C ,  4-C ) :   0.9971 B(  4-C ,  5-O ) :   1.7794 B(  4-C ,  6-N ) :   1.1416
B(  6-N ,  7-C ) :   0.9774 B(  6-N , 10-C ) :   0.9428 B(  7-C ,  8-H ) :   0.9056
B(  7-C ,  9-H ) :   0.8981 B(  7-C , 15-C ) :   0.9107 B( 10-C , 11-H ) :   0.9199
B( 10-C , 12-C ) :   1.0068 B( 10-C , 26-O ) :   0.9370 B( 12-C , 13-H ) :   0.9203
B( 12-C , 14-H ) :   0.9341 B( 12-C , 28-H ) :   0.9357 B( 15-C , 16-N ) :   1.1826
B( 15-C , 17-O ) :   1.7704 B( 16-N , 18-C ) :   0.9558 B( 16-N , 22-C ) :   0.9472
B( 18-C , 19-H ) :   0.9315 B( 18-C , 20-H ) :   0.9243 B( 18-C , 21-H ) :   0.9318
B( 22-C , 23-H ) :   0.9368 B( 22-C , 24-H ) :   0.9253 B( 22-C , 25-H ) :   0.9367
B( 26-O , 27-H ) :   0.7559

Dispersion correction           -0.046225358
FINAL SINGLE POINT ENERGY      -649.349249812125

DIPOLE MOMENT
-------------
                                X             Y             Z
Electronic contribution:      2.39540       3.18291       0.46878
Nuclear contribution   :     -2.96250      -5.07082       1.06324
                        -----------------------------------------
Total Dipole Moment    :     -0.56710      -1.88791       1.53202
                        -----------------------------------------
Magnitude (a.u.)       :      2.49657
Magnitude (Debye)      :      6.34578

Dispersion correction in the Hessian             ... Starting D4

VIBRATIONAL FREQUENCIES
-----------------------

Scaling factor for frequencies =  1.000000000  (already applied!)

   0:         0.00 cm**-1
   1:         0.00 cm**-1
   2:         0.00 cm**-1
   3:         0.00 cm**-1
   4:         0.00 cm**-1
   5:         0.00 cm**-1
   6:        17.37 cm**-1
   7:        38.63 cm**-1
   8:        53.96 cm**-1
   9:        77.51 cm**-1
  10:       101.39 cm**-1
  11:       103.16 cm**-1
  12:       126.51 cm**-1
  13:       139.29 cm**-1
  14:       182.46 cm**-1
  15:       211.83 cm**-1
  16:       222.09 cm**-1
  17:       241.24 cm**-1
  18:       249.95 cm**-1
  19:       268.00 cm**-1
  20:       294.41 cm**-1
  21:       356.20 cm**-1
  22:       386.03 cm**-1
  23:       397.73 cm**-1
  24:       443.16 cm**-1
  25:       459.13 cm**-1
  26:       501.57 cm**-1
  27:       543.49 cm**-1
  28:       573.41 cm**-1
  29:       603.93 cm**-1
  30:       625.35 cm**-1
  31:       687.91 cm**-1
  32:       736.58 cm**-1
  33:       822.36 cm**-1
  34:       902.43 cm**-1
  35:       957.44 cm**-1
  36:       974.39 cm**-1
  37:      1023.85 cm**-1
  38:      1035.53 cm**-1
  39:      1071.41 cm**-1
  40:      1085.08 cm**-1
  41:      1094.53 cm**-1
  42:      1130.40 cm**-1
  43:      1135.17 cm**-1
  44:      1154.82 cm**-1
  45:      1165.50 cm**-1
  46:      1183.65 cm**-1
  47:      1218.93 cm**-1
  48:      1284.87 cm**-1
  49:      1303.51 cm**-1
  50:      1325.12 cm**-1
  51:      1385.79 cm**-1
  52:      1386.83 cm**-1
  53:      1400.75 cm**-1
  54:      1417.45 cm**-1
  55:      1426.09 cm**-1
  56:      1442.05 cm**-1
  57:      1452.91 cm**-1
  58:      1471.11 cm**-1
  59:      1490.20 cm**-1
  60:      1493.15 cm**-1
  61:      1498.49 cm**-1
  62:      1507.02 cm**-1
  63:      1508.63 cm**-1
  64:      1511.12 cm**-1
  65:      1518.60 cm**-1
  66:      1520.65 cm**-1
  67:      1538.24 cm**-1
  68:      1558.14 cm**-1
  69:      1708.35 cm**-1
  70:      1720.37 cm**-1
  71:      3040.24 cm**-1
  72:      3045.40 cm**-1
  73:      3048.49 cm**-1
  74:      3063.82 cm**-1
  75:      3068.70 cm**-1
  76:      3089.73 cm**-1
  77:      3094.66 cm**-1
  78:      3094.77 cm**-1
  79:      3136.37 cm**-1
  80:      3139.48 cm**-1
  81:      3148.55 cm**-1
  82:      3169.46 cm**-1
  83:      3190.80 cm**-1
  84:      3193.79 cm**-1
  85:      3200.99 cm**-1
  86:      3725.95 cm**-1

IR SPECTRUM
-----------

 Mode   freq       eps      Int      T**2         TX        TY        TZ
       cm**-1   L/(mol*cm) km/mol    a.u.
----------------------------------------------------------------------------
  6:     17.37   0.000845    4.27  0.015182  (-0.057339 -0.101994  0.038619)
  7:     38.63   0.000124    0.63  0.001004  ( 0.020015 -0.024558  0.000862)
  8:     53.96   0.001205    6.09  0.006970  ( 0.054190  0.061035  0.017558)
  9:     77.51   0.001522    7.69  0.006127  (-0.028323  0.025748 -0.068280)
 10:    101.39   0.000785    3.97  0.002416  (-0.036444  0.032109 -0.007554)
 11:    103.16   0.000347    1.75  0.001050  ( 0.003079  0.018991  0.026072)
 12:    126.51   0.001104    5.58  0.002722  ( 0.033951  0.008945  0.038598)
 13:    139.29   0.000797    4.03  0.001786  ( 0.030480 -0.025945  0.013566)
 14:    182.46   0.010044   50.76  0.017178  (-0.060233 -0.042707  0.108286)
 15:    211.83   0.002393   12.09  0.003526  (-0.023324 -0.010704  0.053547)
 16:    222.09   0.022470  113.55  0.031573  ( 0.075249  0.066052 -0.146790)
 17:    241.24   0.001849    9.34  0.002392  ( 0.001264 -0.045487  0.017918)
 18:    249.95   0.003207   16.21  0.004004  ( 0.048518  0.012131 -0.038768)
 19:    268.00   0.000362    1.83  0.000422  (-0.010451  0.005522 -0.016799)
 20:    294.41   0.001002    5.07  0.001062  ( 0.001346 -0.024157  0.021842)
 21:    356.20   0.003289   16.62  0.002882  (-0.047460 -0.023930  0.007528)
 22:    386.03   0.002478   12.52  0.002003  (-0.034620  0.019200 -0.020885)
 23:    397.73   0.002250   11.37  0.001765  ( 0.025580  0.033330 -0.000281)
 24:    443.16   0.001498    7.57  0.001055  ( 0.028264  0.015458  0.004109)
 25:    459.13   0.000981    4.96  0.000667  (-0.003733 -0.006464 -0.024725)
 26:    501.57   0.005646   28.53  0.003513  (-0.048669 -0.010370  0.032200)
 27:    543.49   0.004083   20.63  0.002344  ( 0.021454  0.035437 -0.025063)
 28:    573.41   0.002430   12.28  0.001323  (-0.033805  0.001426  0.013339)
 29:    603.93   0.000744    3.76  0.000384  ( 0.013467 -0.014197 -0.001175)
 30:    625.35   0.006469   32.69  0.003228  ( 0.047508  0.004905  0.030774)
 31:    687.91   0.007972   40.29  0.003617  (-0.052218  0.026435 -0.013818)
 32:    736.58   0.000306    1.54  0.000129  ( 0.009539  0.001624  0.005987)
 33:    822.36   0.005245   26.50  0.001990  (-0.023446  0.012784  0.035736)
 34:    902.43   0.004012   20.28  0.001388  ( 0.026930  0.001267  0.025704)
 35:    957.44   0.010000   50.54  0.003259  ( 0.027834 -0.032562  0.037740)
 36:    974.39   0.001777    8.98  0.000569  (-0.009756 -0.014972  0.015800)
 37:   1023.85   0.003633   18.36  0.001107  (-0.022492  0.019949 -0.014265)
 38:   1035.53   0.008509   43.00  0.002564  (-0.019697  0.046638 -0.001139)
 39:   1071.41   0.002963   14.97  0.000863  (-0.005403 -0.000723 -0.028867)
 40:   1085.08   0.001511    7.64  0.000435  (-0.001632  0.007752  0.019284)
 41:   1094.53   0.000778    3.93  0.000222  (-0.009124 -0.011454  0.002725)
 42:   1130.40   0.040750  205.93  0.011250  ( 0.079765 -0.013879  0.068516)
 43:   1135.17   0.000080    0.40  0.000022  ( 0.003002 -0.002165  0.002872)
 44:   1154.82   0.006317   31.93  0.001707  ( 0.038450 -0.012309  0.008786)
 45:   1165.50   0.052375  264.68  0.014023  ( 0.117820  0.000766 -0.011883)
 46:   1183.65   0.000235    1.19  0.000062  (-0.004853  0.005729 -0.002357)
 47:   1218.93   0.007968   40.27  0.002040  ( 0.027191 -0.029930  0.020119)
 48:   1284.87   0.014338   72.46  0.003482  ( 0.054197  0.013713  0.018895)
 49:   1303.51   0.014571   73.64  0.003488  (-0.013013 -0.023328 -0.052676)
 50:   1325.12   0.044952  227.17  0.010586  (-0.066409 -0.068542  0.038446)
 51:   1385.79   0.012566   63.50  0.002830  ( 0.052210 -0.000204 -0.010186)
 52:   1386.83   0.006307   31.87  0.001419  ( 0.000967  0.026875  0.026380)
 53:   1400.75   0.019951  100.83  0.004445  (-0.005233 -0.066416  0.002527)
 54:   1417.45   0.038045  192.26  0.008376  (-0.036398 -0.075595  0.036558)
 55:   1426.09   0.012231   61.81  0.002676  (-0.010002  0.045716  0.022056)
 56:   1442.05   0.009448   47.74  0.002044  (-0.041571  0.002787  0.017567)
 57:   1452.91   0.014883   75.21  0.003197  ( 0.052542  0.015098  0.014423)
 58:   1471.11   0.004569   23.09  0.000969  (-0.024469  0.018527 -0.005226)
 59:   1490.20   0.000251    1.27  0.000053  ( 0.001591 -0.000965  0.007003)
 60:   1493.15   0.004581   23.15  0.000957  (-0.014928 -0.015828 -0.022003)
 61:   1498.49   0.000839    4.24  0.000175  (-0.007590  0.010682  0.001719)
 62:   1507.02   0.007997   40.41  0.001656  (-0.025431 -0.001309  0.031741)
 63:   1508.63   0.004267   21.56  0.000883  ( 0.020115  0.021860  0.000189)
 64:   1511.12   0.005622   28.41  0.001161  ( 0.002838  0.031422 -0.012865)
 65:   1518.60   0.001382    6.98  0.000284  ( 0.000849 -0.000897  0.016807)
 66:   1520.65   0.001908    9.64  0.000391  ( 0.001520  0.019279  0.004180)
 67:   1538.24   0.017868   90.30  0.003625  ( 0.039176  0.014197 -0.043459)
 68:   1558.14   0.018751   94.76  0.003755  (-0.060460 -0.009283 -0.003719)
 69:   1708.35   0.134445  679.43  0.024559  (-0.099886  0.117911  0.026052)
 70:   1720.37   0.080741  408.03  0.014646  (-0.059138 -0.031959  0.100633)
 71:   3040.24   0.005851   29.57  0.000601  ( 0.006062  0.008884  0.022019)
 72:   3045.40   0.021180  107.04  0.002170  ( 0.045207  0.000183 -0.011253)
 73:   3048.49   0.011137   56.28  0.001140  (-0.025126 -0.016595  0.015275)
 74:   3063.82   0.004896   24.74  0.000499  ( 0.008821 -0.020514 -0.000294)
 75:   3068.70   0.001262    6.38  0.000128  (-0.005979  0.002409  0.009313)
 76:   3089.73   0.015560   78.63  0.001572  (-0.002230  0.037300 -0.013240)
 77:   3094.66   0.002227   11.25  0.000225  (-0.012602  0.006516  0.004822)
 78:   3094.77   0.005095   25.75  0.000514  ( 0.013471  0.011857 -0.013844)
 79:   3136.37   0.005593   28.27  0.000557  ( 0.007180  0.022091 -0.004120)
 80:   3139.48   0.002726   13.77  0.000271  ( 0.004523 -0.006060  0.014620)
 81:   3148.55   0.000754    3.81  0.000075  (-0.006435  0.005752  0.000532)
 82:   3169.46   0.003412   17.24  0.000336  ( 0.014566  0.009274 -0.006143)
 83:   3190.80   0.000565    2.85  0.000055  ( 0.005955 -0.004185 -0.001509)
 84:   3193.79   0.000658    3.32  0.000064  ( 0.001118 -0.002610 -0.007497)
 85:   3200.99   0.002780   14.05  0.000271  (-0.012182 -0.004082 -0.010295)
 86:   3725.95   0.011659   58.92  0.000977  (-0.023968  0.019047 -0.006263)

--------------------------
THERMOCHEMISTRY AT 298.15K
--------------------------

Temperature         ... 298.15 K
Pressure            ... 1.00 atm
Total Mass          ... 188.23 AMU

Throughout the following assumptions are being made:
  (1) The electronic state is orbitally nondegenerate
  (2) There are no thermally accessible electronically excited states
  (3) Hindered rotations indicated by low frequency modes are not
      treated as such but are treated as vibrations and this may
      cause some error
  (4) All equations used are the standard statistical mechanics
      equations for an ideal gas
  (5) All vibrations are strictly harmonic

freq.      17.37  E(vib)   ...       0.57
freq.      38.63  E(vib)   ...       0.54
freq.      53.96  E(vib)   ...       0.52
freq.      77.51  E(vib)   ...       0.49
freq.     101.39  E(vib)   ...       0.46
freq.     103.16  E(vib)   ...       0.46
freq.     126.51  E(vib)   ...       0.43
freq.     139.29  E(vib)   ...       0.42
freq.     182.46  E(vib)   ...       0.37
freq.     211.83  E(vib)   ...       0.34
freq.     222.09  E(vib)   ...       0.33
freq.     241.24  E(vib)   ...       0.31
freq.     249.95  E(vib)   ...       0.31
freq.     268.00  E(vib)   ...       0.29
freq.     294.41  E(vib)   ...       0.27
freq.     356.20  E(vib)   ...       0.22
freq.     386.03  E(vib)   ...       0.20
freq.     397.73  E(vib)   ...       0.20
freq.     443.16  E(vib)   ...       0.17
freq.     459.13  E(vib)   ...       0.16
freq.     501.57  E(vib)   ...       0.14
freq.     543.49  E(vib)   ...       0.12
freq.     573.41  E(vib)   ...       0.11
freq.     603.93  E(vib)   ...       0.10
freq.     625.35  E(vib)   ...       0.09
freq.     687.91  E(vib)   ...       0.07
freq.     736.58  E(vib)   ...       0.06
freq.     822.36  E(vib)   ...       0.05
freq.     902.43  E(vib)   ...       0.03
freq.     957.44  E(vib)   ...       0.03
freq.     974.39  E(vib)   ...       0.03
freq.    1023.85  E(vib)   ...       0.02
freq.    1035.53  E(vib)   ...       0.02
freq.    1071.41  E(vib)   ...       0.02
freq.    1085.08  E(vib)   ...       0.02
freq.    1094.53  E(vib)   ...       0.02
freq.    1130.40  E(vib)   ...       0.01
freq.    1135.17  E(vib)   ...       0.01
freq.    1154.82  E(vib)   ...       0.01
freq.    1165.50  E(vib)   ...       0.01
freq.    1183.65  E(vib)   ...       0.01
freq.    1218.93  E(vib)   ...       0.01
freq.    1284.87  E(vib)   ...       0.01
freq.    1303.51  E(vib)   ...       0.01
freq.    1325.12  E(vib)   ...       0.01
freq.    1385.79  E(vib)   ...       0.00
freq.    1386.83  E(vib)   ...       0.00
freq.    1400.75  E(vib)   ...       0.00
freq.    1417.45  E(vib)   ...       0.00
freq.    1426.09  E(vib)   ...       0.00
freq.    1442.05  E(vib)   ...       0.00
freq.    1452.91  E(vib)   ...       0.00
freq.    1471.11  E(vib)   ...       0.00
freq.    1490.20  E(vib)   ...       0.00
freq.    1493.15  E(vib)   ...       0.00
freq.    1498.49  E(vib)   ...       0.00
freq.    1507.02  E(vib)   ...       0.00
freq.    1508.63  E(vib)   ...       0.00
freq.    1511.12  E(vib)   ...       0.00
freq.    1518.60  E(vib)   ...       0.00
freq.    1520.65  E(vib)   ...       0.00
freq.    1538.24  E(vib)   ...       0.00
freq.    1558.14  E(vib)   ...       0.00
freq.    1708.35  E(vib)   ...       0.00
freq.    1720.37  E(vib)   ...       0.00
freq.    3040.24  E(vib)   ...       0.00
freq.    3045.40  E(vib)   ...       0.00
freq.    3048.49  E(vib)   ...       0.00
freq.    3063.82  E(vib)   ...       0.00
freq.    3068.70  E(vib)   ...       0.00
freq.    3089.73  E(vib)   ...       0.00
freq.    3094.66  E(vib)   ...       0.00
freq.    3094.77  E(vib)   ...       0.00
freq.    3136.37  E(vib)   ...       0.00
freq.    3139.48  E(vib)   ...       0.00
freq.    3148.55  E(vib)   ...       0.00
freq.    3169.46  E(vib)   ...       0.00
freq.    3190.80  E(vib)   ...       0.00
freq.    3193.79  E(vib)   ...       0.00
freq.    3200.99  E(vib)   ...       0.00
freq.    3725.95  E(vib)   ...       0.00

------------
INNER ENERGY
------------

The inner energy is: U= E(el) + E(ZPE) + E(vib) + E(rot) + E(trans)
    E(el)   - is the total energy from the electronic structure calculation
              = E(kin-el) + E(nuc-el) + E(el-el) + E(nuc-nuc)
    E(ZPE)  - the the zero temperature vibrational energy from the frequency calculation
    E(vib)  - the the finite temperature correction to E(ZPE) due to population
              of excited vibrational states
    E(rot)  - is the rotational thermal energy
    E(trans)- is the translational thermal energy

Summary of contributions to the inner energy U:
Electronic energy                ...   -649.34924981 Eh
Zero point energy                ...      0.24813450 Eh     155.71 kcal/mol
Thermal vibrational correction   ...      0.01294772 Eh       8.12 kcal/mol
Thermal rotational correction    ...      0.00141627 Eh       0.89 kcal/mol
Thermal translational correction ...      0.00141627 Eh       0.89 kcal/mol
-----------------------------------------------------------------------
Total thermal energy                   -649.08533505 Eh

Summary of corrections to the electronic energy:
(perhaps to be used in another calculation)
Total thermal correction                  0.01578026 Eh       9.90 kcal/mol
Non-thermal (ZPE) correction              0.24813450 Eh     155.71 kcal/mol
-----------------------------------------------------------------------
Total correction                          0.26391476 Eh     165.61 kcal/mol

--------
ENTHALPY
--------

The enthalpy is H = U + kB*T
                kB is Boltzmann's constant
Total free energy                 ...   -649.08533505 Eh
Thermal Enthalpy correction       ...      0.00094421 Eh       0.59 kcal/mol
-----------------------------------------------------------------------
Total Enthalpy                    ...   -649.08439084 Eh

Note: Only C1 symmetry has been detected, increase convergence thresholds
      if your molecule has a higher symmetry. Symmetry factor of 1.0 is
      used for the rotational entropy correction.

Note: Rotational entropy computed according to Herzberg
Infrared and Raman Spectra, Chapter V,1, Van Nostrand Reinhold, 1945
Point Group:  C1, Symmetry Number:   1
Rotational constants in cm-1:     0.044016     0.015448     0.014409

Vibrational entropy computed according to the QRRHO of S. Grimme
Chem.Eur.J. 2012 18 9955

-------
ENTROPY
-------

The entropy contributions are T*S = T*(S(el)+S(vib)+S(rot)+S(trans))

                             ****ORCA TERMINATED NORMALLY****
TOTAL RUN TIME: 0 days 0 hours 41 minutes 3 seconds 834 msec
