                         Program Version 5.0.4 -  RELEASE  -
|  1> ! OPT FREQ B3LYP 6-31G(d) D4 AUTOAUX
|  2>
|  3> %PAL NPROCS 4 END
|  4>
|  5> %maxcore 3375
|  6>
|  7> *xyzfile 0 1 /users/fjb15167/WWenergy/structures/Ny.xyz
|  8>
|  9>                          ****END OF INPUT****
 Total Charge           Charge          ....    0
 Multiplicity           Mult            ....    1
 Number of Electrons    NEL             ....  134
Dispersion correction           -0.070379588
FINAL SINGLE POINT ENERGY      -840.968472450821
Dispersion correction            ... Starting D4
Dispersion correction           -0.069660897
FINAL SINGLE POINT ENERGY      -840.969240406310
Dispersion correction            ... Starting D4
Dispersion correction           -0.070135419
FINAL SINGLE POINT ENERGY      -840.969430777661
Dispersion correction            ... Starting D4
FINAL SINGLE POINT ENERGY      -840.969476522579
FINAL SINGLE POINT ENERGY      -840.969506145726
FINAL SINGLE POINT ENERGY      -840.969515573077
Dispersion correction           -0.070093323
FINAL SINGLE POINT ENERGY      -840.969523540142
Dispersion correction            ... Starting D4
Dispersion correction           -0.070087928
FINAL SINGLE POINT ENERGY      -840.969527080666
Dispersion correction            ... Starting D4
                    ***********************HURRAY********************

CARTESIAN COORDINATES (ANGSTROEM)
---------------------------------
  C     -1.912697   -1.615604    1.164453
  H      0.120022   -2.276669    1.523865
  H     -0.879503   -3.480407    0.710632
  H     -1.153143   -3.128726    2.438985
  O     -2.745760   -1.270951    2.003298
  C     -0.890376   -2.693932    1.473713
  N     -1.865464   -1.041531   -0.085048
  C     -2.930767   -0.117395   -0.475321
  H     -3.429529   -0.494700   -1.373581
  H     -3.649534   -0.085198    0.342244
  C     -0.884182   -1.402919   -1.115289
  H     -0.957650   -2.473413   -1.349544
  H     -1.186692   -0.862122   -2.017831
  C      0.553570   -1.055790   -0.781149
  C      1.586868   -1.928163   -1.141554
  H      1.345830   -2.871425   -1.627370
  C      2.920442   -1.619404   -0.889469
  H      3.719904   -2.298855   -1.167457
  C      3.241810   -0.416279   -0.254581
  O      4.563254   -0.159023   -0.019423
  H      4.643930    0.702574    0.419062
  C      0.890809    0.143914   -0.147142
  H      0.108458    0.833698    0.150821
  C      2.220511    0.463389    0.119255
  H      2.465823    1.400156    0.617364
  C     -2.376928    1.256163   -0.870056
  O     -2.203491    1.505612   -2.062989
  N     -2.039709    2.136543    0.123247
  C     -1.481005    3.427549   -0.251046
  H     -0.489412    3.559460    0.203041
  H     -1.396213    3.467509   -1.336158
  H     -2.130053    4.241153    0.099461
  C     -2.224224    1.928584    1.552845
  H     -1.265733    2.067821    2.071784
  H     -2.933184    2.665765    1.955052
  H     -2.584981    0.926616    1.782886

 Multiplicity           Mult            ....    1
 Number of Electrons    NEL             ....  134
 Basis Dimension        Dim             ....  288

ORBITAL ENERGIES
----------------

  NO   OCC          E(Eh)            E(eV)
   0   2.0000     -19.174623      -521.7680
   1   2.0000     -19.106340      -519.9099
   2   2.0000     -19.104332      -519.8553
   3   2.0000     -14.361460      -390.7952
   4   2.0000     -14.360937      -390.7810
   5   2.0000     -10.281581      -279.7760
   6   2.0000     -10.277705      -279.6706
   7   2.0000     -10.247078      -278.8372
   8   2.0000     -10.221338      -278.1367
   9   2.0000     -10.213409      -277.9210
  10   2.0000     -10.205363      -277.7020
  11   2.0000     -10.202869      -277.6342
  12   2.0000     -10.188423      -277.2411
  13   2.0000     -10.187301      -277.2106
  14   2.0000     -10.186814      -277.1973
  15   2.0000     -10.185862      -277.1714
  16   2.0000     -10.180888      -277.0360
  17   2.0000     -10.176131      -276.9066
  18   2.0000      -1.061050       -28.8726
  19   2.0000      -1.032457       -28.0946
  20   2.0000      -1.025288       -27.8995
  21   2.0000      -0.934661       -25.4334
  22   2.0000      -0.929276       -25.2869
  23   2.0000      -0.853855       -23.2346
  24   2.0000      -0.772343       -21.0165
  25   2.0000      -0.753317       -20.4988
  26   2.0000      -0.750250       -20.4153
  27   2.0000      -0.723495       -19.6873
  28   2.0000      -0.711217       -19.3532
  29   2.0000      -0.689189       -18.7538
  30   2.0000      -0.671496       -18.2723
  31   2.0000      -0.625948       -17.0329
  32   2.0000      -0.600866       -16.3504
  33   2.0000      -0.553646       -15.0655
  34   2.0000      -0.546446       -14.8696
  35   2.0000      -0.535444       -14.5702
  36   2.0000      -0.513006       -13.9596
  37   2.0000      -0.500798       -13.6274
  38   2.0000      -0.482117       -13.1191
  39   2.0000      -0.480061       -13.0631
  40   2.0000      -0.469714       -12.7816
  41   2.0000      -0.463527       -12.6132
  42   2.0000      -0.452734       -12.3195
  43   2.0000      -0.443974       -12.0812
  44   2.0000      -0.433438       -11.7945
  45   2.0000      -0.423680       -11.5289
  46   2.0000      -0.415798       -11.3144
  47   2.0000      -0.410883       -11.1807
  48   2.0000      -0.405967       -11.0469
  49   2.0000      -0.401585       -10.9277
  50   2.0000      -0.401162       -10.9162
  51   2.0000      -0.398297       -10.8382
  52   2.0000      -0.396572       -10.7913
  53   2.0000      -0.388859       -10.5814
  54   2.0000      -0.378883       -10.3099
  55   2.0000      -0.373707       -10.1691
  56   2.0000      -0.363640        -9.8951
  57   2.0000      -0.359346        -9.7783
  58   2.0000      -0.347755        -9.4629
  59   2.0000      -0.339715        -9.2441
  60   2.0000      -0.328714        -8.9448
  61   2.0000      -0.257932        -7.0187
  62   2.0000      -0.254309        -6.9201
  63   2.0000      -0.248271        -6.7558
  64   2.0000      -0.239873        -6.5273
  65   2.0000      -0.234583        -6.3833
  66   2.0000      -0.216920        -5.9027
  67   0.0000      -0.006148        -0.1673
  68   0.0000       0.007581         0.2063
  69   0.0000       0.017506         0.4764
  70   0.0000       0.030289         0.8242
  71   0.0000       0.065571         1.7843

MULLIKEN ATOMIC CHARGES
-----------------------
   0 C :    0.526200
   1 H :    0.192481
   2 H :    0.162743
   3 H :    0.183025
   4 O :   -0.478702
   5 C :   -0.545813
   6 N :   -0.380190
   7 C :   -0.245474
   8 H :    0.174058
   9 H :    0.198542
  10 C :   -0.247558
  11 H :    0.152539
  12 H :    0.203432
  13 C :    0.142595
  14 C :   -0.185410
  15 H :    0.124931
  16 C :   -0.162036
  17 H :    0.141004
  18 C :    0.356871
  19 O :   -0.635836
  20 H :    0.411369
  21 C :   -0.168475
  22 H :    0.149322
  23 C :   -0.211625
  24 H :    0.117447
  25 C :    0.517153
  26 O :   -0.477769
  27 N :   -0.369637
  28 C :   -0.320474
  29 H :    0.144339
  30 H :    0.205467
  31 H :    0.153833
  32 C :   -0.353352
  33 H :    0.148645
  34 H :    0.154044
  35 H :    0.222310
Sum of atomic charges:    0.0000000

LOEWDIN ATOMIC CHARGES
----------------------
   0 C :    0.113917
   1 H :    0.156670
   2 H :    0.139642
   3 H :    0.150761
   4 O :   -0.289295
   5 C :   -0.389490
   6 N :   -0.080585
   7 C :   -0.179221
   8 H :    0.141135
   9 H :    0.156717
  10 C :   -0.153969
  11 H :    0.126665
  12 H :    0.158310
  13 C :   -0.053529
  14 C :   -0.123273
  15 H :    0.130303
  16 C :   -0.152647
  17 H :    0.141867
  18 C :    0.069359
  19 O :   -0.316803
  20 H :    0.325826
  21 C :   -0.123114
  22 H :    0.140589
  23 C :   -0.179972
  24 H :    0.126610
  25 C :    0.092862
  26 O :   -0.285403
  27 N :   -0.083167
  28 C :   -0.278922
  29 H :    0.120048
  30 H :    0.157413
  31 H :    0.124896
  32 C :   -0.290236
  33 H :    0.122526
  34 H :    0.124229
  35 H :    0.159283

  Mayer bond orders larger than 0.100000
B(  0-C ,  4-O ) :   1.7846 B(  0-C ,  5-C ) :   0.9896 B(  0-C ,  6-N ) :   1.1298
B(  1-H ,  5-C ) :   0.9186 B(  2-H ,  5-C ) :   0.9303 B(  3-H ,  5-C ) :   0.9399
B(  6-N ,  7-C ) :   0.9516 B(  6-N , 10-C ) :   0.9252 B(  7-C ,  8-H ) :   0.9203
B(  7-C ,  9-H ) :   0.8955 B(  7-C , 25-C ) :   0.9316 B( 10-C , 11-H ) :   0.9237
B( 10-C , 12-H ) :   0.9007 B( 10-C , 13-C ) :   0.9641 B( 13-C , 14-C ) :   1.4130
B( 13-C , 21-C ) :   1.4387 B( 14-C , 15-H ) :   0.9230 B( 14-C , 16-C ) :   1.4501
B( 16-C , 17-H ) :   0.9199 B( 16-C , 18-C ) :   1.4031 B( 18-C , 19-O ) :   0.9619
B( 18-C , 23-C ) :   1.3752 B( 19-O , 20-H ) :   0.7783 B( 21-C , 22-H ) :   0.9022
B( 21-C , 23-C ) :   1.4371 B( 23-C , 24-H ) :   0.9225 B( 25-C , 26-O ) :   1.7967
B( 25-C , 27-N ) :   1.1464 B( 26-O , 27-N ) :   0.1005 B( 27-N , 28-C ) :   0.9556
B( 27-N , 32-C ) :   0.9524 B( 28-C , 29-H ) :   0.9402 B( 28-C , 30-H ) :   0.9171
B( 28-C , 31-H ) :   0.9411 B( 32-C , 33-H ) :   0.9377 B( 32-C , 34-H ) :   0.9370
B( 32-C , 35-H ) :   0.8853

Dispersion correction           -0.070079065
FINAL SINGLE POINT ENERGY      -840.969528461521

DIPOLE MOMENT
-------------
                                X             Y             Z
Electronic contribution:      3.98339      -3.14449      -3.89494
Nuclear contribution   :     -3.25733       3.48521       4.35725
                        -----------------------------------------
Total Dipole Moment    :      0.72606       0.34072       0.46231
                        -----------------------------------------
Magnitude (a.u.)       :      0.92573
Magnitude (Debye)      :      2.35302

Dispersion correction in the Hessian             ... Starting D4

VIBRATIONAL FREQUENCIES
-----------------------

Scaling factor for frequencies =  1.000000000  (already applied!)

   0:         0.00 cm**-1
   1:         0.00 cm**-1
   2:         0.00 cm**-1
   3:         0.00 cm**-1
   4:         0.00 cm**-1
   5:         0.00 cm**-1
   6:        22.04 cm**-1
   7:        34.76 cm**-1
   8:        41.77 cm**-1
   9:        61.89 cm**-1
  10:        70.47 cm**-1
  11:        84.40 cm**-1
  12:       107.91 cm**-1
  13:       120.89 cm**-1
  14:       128.57 cm**-1
  15:       158.41 cm**-1
  16:       177.55 cm**-1
  17:       183.52 cm**-1
  18:       237.94 cm**-1
  19:       267.66 cm**-1
  20:       288.45 cm**-1
  21:       306.08 cm**-1
  22:       345.17 cm**-1
  23:       352.57 cm**-1
  24:       364.60 cm**-1
  25:       378.16 cm**-1
  26:       420.97 cm**-1
  27:       423.23 cm**-1
  28:       429.83 cm**-1
  29:       457.66 cm**-1
  30:       485.54 cm**-1
  31:       516.81 cm**-1
  32:       544.16 cm**-1
  33:       582.07 cm**-1
  34:       601.94 cm**-1
  35:       636.56 cm**-1
  36:       656.03 cm**-1
  37:       704.07 cm**-1
  38:       717.13 cm**-1
  39:       768.80 cm**-1
  40:       779.95 cm**-1
  41:       817.54 cm**-1
  42:       824.33 cm**-1
  43:       844.24 cm**-1
  44:       866.09 cm**-1
  45:       940.40 cm**-1
  46:       956.03 cm**-1
  47:       959.55 cm**-1
  48:       987.78 cm**-1
  49:      1007.73 cm**-1
  50:      1010.90 cm**-1
  51:      1034.46 cm**-1
  52:      1066.98 cm**-1
  53:      1095.56 cm**-1
  54:      1103.52 cm**-1
  55:      1138.36 cm**-1
  56:      1143.02 cm**-1
  57:      1174.87 cm**-1
  58:      1191.18 cm**-1
  59:      1207.69 cm**-1
  60:      1211.28 cm**-1
  61:      1224.43 cm**-1
  62:      1246.43 cm**-1
  63:      1278.80 cm**-1
  64:      1289.04 cm**-1
  65:      1312.37 cm**-1
  66:      1317.09 cm**-1
  67:      1346.99 cm**-1
  68:      1376.75 cm**-1
  69:      1385.52 cm**-1
  70:      1394.49 cm**-1
  71:      1420.61 cm**-1
  72:      1447.56 cm**-1
  73:      1459.92 cm**-1
  74:      1469.02 cm**-1
  75:      1490.94 cm**-1
  76:      1497.10 cm**-1
  77:      1502.69 cm**-1
  78:      1511.85 cm**-1
  79:      1518.35 cm**-1
  80:      1526.23 cm**-1
  81:      1534.60 cm**-1
  82:      1536.60 cm**-1
  83:      1547.36 cm**-1
  84:      1569.24 cm**-1
  85:      1571.23 cm**-1
  86:      1653.61 cm**-1
  87:      1681.35 cm**-1
  88:      1745.76 cm**-1
  89:      1748.33 cm**-1
  90:      3021.12 cm**-1
  91:      3031.11 cm**-1
  92:      3036.05 cm**-1
  93:      3065.64 cm**-1
  94:      3065.83 cm**-1
  95:      3076.03 cm**-1
  96:      3083.32 cm**-1
  97:      3099.78 cm**-1
  98:      3131.07 cm**-1
  99:      3166.81 cm**-1
 100:      3169.63 cm**-1
 101:      3176.05 cm**-1
 102:      3178.64 cm**-1
 103:      3184.86 cm**-1
 104:      3190.72 cm**-1
 105:      3218.11 cm**-1
 106:      3225.28 cm**-1
 107:      3744.73 cm**-1

IR SPECTRUM
-----------

 Mode   freq       eps      Int      T**2         TX        TY        TZ
       cm**-1   L/(mol*cm) km/mol    a.u.
----------------------------------------------------------------------------
  6:     22.04   0.000575    2.91  0.008148  ( 0.089659  0.003963 -0.009655)
  7:     34.76   0.000290    1.46  0.002600  (-0.044892  0.023612 -0.005230)
  8:     41.77   0.000085    0.43  0.000637  (-0.015332  0.007623 -0.018533)
  9:     61.89   0.000662    3.34  0.003337  ( 0.050644 -0.015436  0.023115)
 10:     70.47   0.000050    0.25  0.000223  (-0.011351 -0.003696 -0.008966)
 11:     84.40   0.000031    0.16  0.000116  (-0.008160 -0.006027  0.003624)
 12:    107.91   0.001794    9.07  0.005188  (-0.000701 -0.071971  0.002755)
 13:    120.89   0.000415    2.10  0.001072  ( 0.003289 -0.032570 -0.000859)
 14:    128.57   0.000322    1.63  0.000782  (-0.004991 -0.025535 -0.010236)
 15:    158.41   0.000049    0.25  0.000096  ( 0.005216  0.001570  0.008167)
 16:    177.55   0.000583    2.95  0.001025  (-0.011009 -0.026803  0.013612)
 17:    183.52   0.000144    0.73  0.000245  ( 0.010792 -0.010410  0.004492)
 18:    237.94   0.000095    0.48  0.000125  (-0.010412 -0.001450 -0.003756)
 19:    267.66   0.000222    1.12  0.000259  ( 0.005535  0.014973 -0.002033)
 20:    288.45   0.002269   11.47  0.002454  (-0.045007  0.020341 -0.003885)
 21:    306.08   0.001010    5.11  0.001030  ( 0.013895 -0.022323  0.018407)
 22:    345.17   0.001023    5.17  0.000925  ( 0.003270 -0.028356  0.010479)
 23:    352.57   0.000998    5.04  0.000883  (-0.003072 -0.021936 -0.019807)
 24:    364.60   0.022857  115.51  0.019564  ( 0.009410  0.062649 -0.124700)
 25:    378.16   0.001404    7.10  0.001159  (-0.019786 -0.023901 -0.014009)
 26:    420.97   0.000360    1.82  0.000267  ( 0.015321  0.005620 -0.000571)
 27:    423.23   0.000212    1.07  0.000157  ( 0.011122  0.005029  0.002751)
 28:    429.83   0.000569    2.87  0.000413  (-0.015476 -0.013053 -0.001767)
 29:    457.66   0.003219   16.27  0.002195  (-0.042823 -0.011040  0.015462)
 30:    485.54   0.003440   17.38  0.002211  (-0.035223  0.023817 -0.020076)
 31:    516.81   0.001184    5.98  0.000715  (-0.003424 -0.019247  0.018242)
 32:    544.16   0.000515    2.60  0.000295  (-0.015224 -0.007441 -0.002890)
 33:    582.07   0.001273    6.43  0.000682  ( 0.002181  0.025587 -0.004785)
 34:    601.94   0.002665   13.47  0.001382  (-0.021983 -0.029019  0.007503)
 35:    636.56   0.002774   14.02  0.001360  ( 0.002546  0.012592  0.034568)
 36:    656.03   0.000315    1.59  0.000150  ( 0.001728 -0.004519 -0.011252)
 37:    704.07   0.000085    0.43  0.000038  ( 0.005058  0.002841  0.001966)
 38:    717.13   0.000849    4.29  0.000369  (-0.018969  0.000327  0.003086)
 39:    768.80   0.000677    3.42  0.000275  (-0.006886 -0.011169  0.010128)
 40:    779.95   0.001517    7.67  0.000607  (-0.017907  0.010191  0.013506)
 41:    817.54   0.003031   15.32  0.001157  (-0.001740  0.008007 -0.033013)
 42:    824.33   0.002522   12.74  0.000955  ( 0.000285 -0.027442 -0.014195)
 43:    844.24   0.004523   22.86  0.001672  ( 0.003566  0.025376 -0.031862)
 44:    866.09   0.002164   10.93  0.000780  (-0.026851 -0.007563 -0.001205)
 45:    940.40   0.000545    2.76  0.000181  ( 0.011586 -0.000384  0.006826)
 46:    956.03   0.000281    1.42  0.000092  (-0.006431  0.006399 -0.003056)
 47:    959.55   0.000136    0.69  0.000044  ( 0.000014  0.001321  0.006525)
 48:    987.78   0.004374   22.10  0.001382  ( 0.029085 -0.020088  0.011503)
 49:   1007.73   0.003717   18.78  0.001151  (-0.005637 -0.019110 -0.027461)
 50:   1010.90   0.004922   24.87  0.001519  ( 0.019491  0.030668 -0.014102)
 51:   1034.46   0.000215    1.09  0.000065  (-0.005122  0.005932  0.001881)
 52:   1066.98   0.001206    6.10  0.000353  ( 0.015889  0.009299  0.003731)
 53:   1095.56   0.001974    9.98  0.000562  (-0.007346 -0.001533  0.022495)
 54:   1103.52   0.003552   17.95  0.001004  ( 0.000435 -0.020002 -0.024579)
 55:   1138.36   0.003672   18.56  0.001007  ( 0.010940  0.026608  0.013376)
 56:   1143.02   0.000038    0.19  0.000010  ( 0.002181 -0.002291 -0.000697)
 57:   1174.87   0.007338   37.08  0.001949  (-0.003035  0.028006  0.033993)
 58:   1191.18   0.000508    2.57  0.000133  ( 0.009342 -0.006762  0.000263)
 59:   1207.69   0.026951  136.20  0.006964  ( 0.082868  0.009826 -0.000605)
 60:   1211.28   0.006202   31.34  0.001598  ( 0.039533  0.003378  0.004852)
 61:   1224.43   0.008532   43.12  0.002175  (-0.041413 -0.010519 -0.018678)
 62:   1246.43   0.000951    4.80  0.000238  ( 0.014519  0.000349 -0.005204)
 63:   1278.80   0.015169   76.66  0.003702  ( 0.014093 -0.037716  0.045614)
 64:   1289.04   0.011573   58.48  0.002802  ( 0.013703  0.047910 -0.017847)
 65:   1312.37   0.014465   73.10  0.003440  ( 0.045128  0.035316 -0.012480)
 66:   1317.09   0.013480   68.12  0.003194  (-0.052011  0.002014 -0.022018)
 67:   1346.99   0.004063   20.53  0.000941  (-0.023763 -0.017474  0.008442)
 68:   1376.75   0.000754    3.81  0.000171  ( 0.012659  0.003051  0.001116)
 69:   1385.52   0.009149   46.24  0.002061  ( 0.042277  0.016406 -0.002030)
 70:   1394.49   0.008873   44.84  0.001986  ( 0.026494  0.006456 -0.035243)
 71:   1420.61   0.002519   12.73  0.000553  (-0.005555 -0.013138  0.018704)
 72:   1447.56   0.006961   35.18  0.001501  ( 0.002306 -0.030351 -0.023962)
 73:   1459.92   0.015186   76.75  0.003246  (-0.003716 -0.056843 -0.001100)
 74:   1469.02   0.016817   84.98  0.003572  ( 0.005188 -0.016985  0.057070)
 75:   1490.94   0.004682   23.66  0.000980  (-0.022769 -0.019534 -0.008945)
 76:   1497.10   0.004446   22.47  0.000927  ( 0.025003  0.004754 -0.016701)
 77:   1502.69   0.002300   11.62  0.000478  ( 0.019086  0.010264 -0.002830)
 78:   1511.85   0.000586    2.96  0.000121  ( 0.000372 -0.010984  0.000367)
 79:   1518.35   0.003547   17.93  0.000729  (-0.010280  0.019701 -0.015338)
 80:   1526.23   0.000843    4.26  0.000172  ( 0.007504 -0.010435  0.002682)
 81:   1534.60   0.009958   50.32  0.002025  ( 0.033346 -0.010527  0.028323)
 82:   1536.60   0.005465   27.62  0.001110  ( 0.007089 -0.006936 -0.031804)
 83:   1547.36   0.000091    0.46  0.000018  (-0.001797 -0.003547 -0.001581)
 84:   1569.24   0.016791   84.86  0.003339  ( 0.047517  0.029971  0.013529)
 85:   1571.23   0.008978   45.37  0.001783  ( 0.038778 -0.015883 -0.005206)
 86:   1653.61   0.004408   22.28  0.000832  (-0.027858  0.006810  0.003078)
 87:   1681.35   0.009996   50.52  0.001855  ( 0.039006  0.015197  0.010146)
 88:   1745.76   0.060625  306.37  0.010837  (-0.064789  0.011859  0.080615)
 89:   1748.33   0.051242  258.95  0.009146  ( 0.004096  0.012783  0.094689)
 90:   3021.12   0.006797   34.35  0.000702  (-0.006377  0.007210  0.024687)
 91:   3031.11   0.017594   88.91  0.001811  (-0.008319 -0.036778 -0.019737)
 92:   3036.05   0.005336   26.97  0.000548  (-0.001412 -0.020465 -0.011299)
 93:   3065.64   0.000936    4.73  0.000095  (-0.001489  0.009360  0.002341)
 94:   3065.83   0.010454   52.83  0.001064  (-0.029490  0.013943 -0.000106)
 95:   3076.03   0.005910   29.86  0.000600  (-0.020955  0.012650 -0.000622)
 96:   3083.32   0.004480   22.64  0.000453  ( 0.016316  0.001675  0.013578)
 97:   3099.78   0.000418    2.11  0.000042  (-0.000825  0.004676 -0.004423)
 98:   3131.07   0.001295    6.54  0.000129  ( 0.003124  0.007472  0.007966)
 99:   3166.81   0.004397   22.22  0.000433  (-0.012438 -0.015007 -0.007305)
100:   3169.63   0.000033    0.17  0.000003  ( 0.001060 -0.001256 -0.000733)
101:   3176.05   0.001647    8.32  0.000162  (-0.005930 -0.005625  0.009749)
102:   3178.64   0.002153   10.88  0.000211  (-0.005116 -0.011480 -0.007310)
103:   3184.86   0.003227   16.31  0.000316  ( 0.003829 -0.017230  0.002149)
104:   3190.72   0.000107    0.54  0.000010  (-0.002052 -0.001487  0.002009)
105:   3218.11   0.001685    8.52  0.000163  (-0.009402  0.007633  0.004092)
106:   3225.28   0.000232    1.17  0.000022  (-0.002809 -0.002030 -0.003226)
107:   3744.73   0.008677   43.85  0.000723  (-0.016587 -0.018690 -0.009932)

--------------------------
THERMOCHEMISTRY AT 298.15K
--------------------------

Temperature         ... 298.15 K
Pressure            ... 1.00 atm
Total Mass          ... 250.30 AMU

Throughout the following assumptions are being made:
  (1) The electronic state is orbitally nondegenerate
  (2) There are no thermally accessible electronically excited states
  (3) Hindered rotations indicated by low frequency modes are not
      treated as such but are treated as vibrations and this may
      cause some error
  (4) All equations used are the standard statistical mechanics
      equations for an ideal gas
  (5) All vibrations are strictly harmonic

freq.      22.04  E(vib)   ...       0.56
freq.      34.76  E(vib)   ...       0.54
freq.      41.77  E(vib)   ...       0.53
freq.      61.89  E(vib)   ...       0.51
freq.      70.47  E(vib)   ...       0.50
freq.      84.40  E(vib)   ...       0.48
freq.     107.91  E(vib)   ...       0.45
freq.     120.89  E(vib)   ...       0.44
freq.     128.57  E(vib)   ...       0.43
freq.     158.41  E(vib)   ...       0.39
freq.     177.55  E(vib)   ...       0.37
freq.     183.52  E(vib)   ...       0.37
freq.     237.94  E(vib)   ...       0.32
freq.     267.66  E(vib)   ...       0.29
freq.     288.45  E(vib)   ...       0.27
freq.     306.08  E(vib)   ...       0.26
freq.     345.17  E(vib)   ...       0.23
freq.     352.57  E(vib)   ...       0.22
freq.     364.60  E(vib)   ...       0.22
freq.     378.16  E(vib)   ...       0.21
freq.     420.97  E(vib)   ...       0.18
freq.     423.23  E(vib)   ...       0.18
freq.     429.83  E(vib)   ...       0.18
freq.     457.66  E(vib)   ...       0.16
freq.     485.54  E(vib)   ...       0.15
freq.     516.81  E(vib)   ...       0.13
freq.     544.16  E(vib)   ...       0.12
freq.     582.07  E(vib)   ...       0.11
freq.     601.94  E(vib)   ...       0.10
freq.     636.56  E(vib)   ...       0.09
freq.     656.03  E(vib)   ...       0.08
freq.     704.07  E(vib)   ...       0.07
freq.     717.13  E(vib)   ...       0.07
freq.     768.80  E(vib)   ...       0.06
freq.     779.95  E(vib)   ...       0.05
freq.     817.54  E(vib)   ...       0.05
freq.     824.33  E(vib)   ...       0.04
freq.     844.24  E(vib)   ...       0.04
freq.     866.09  E(vib)   ...       0.04
freq.     940.40  E(vib)   ...       0.03
freq.     956.03  E(vib)   ...       0.03
freq.     959.55  E(vib)   ...       0.03
freq.     987.78  E(vib)   ...       0.02
freq.    1007.73  E(vib)   ...       0.02
freq.    1010.90  E(vib)   ...       0.02
freq.    1034.46  E(vib)   ...       0.02
freq.    1066.98  E(vib)   ...       0.02
freq.    1095.56  E(vib)   ...       0.02
freq.    1103.52  E(vib)   ...       0.02
freq.    1138.36  E(vib)   ...       0.01
freq.    1143.02  E(vib)   ...       0.01
freq.    1174.87  E(vib)   ...       0.01
freq.    1191.18  E(vib)   ...       0.01
freq.    1207.69  E(vib)   ...       0.01
freq.    1211.28  E(vib)   ...       0.01
freq.    1224.43  E(vib)   ...       0.01
freq.    1246.43  E(vib)   ...       0.01
freq.    1278.80  E(vib)   ...       0.01
freq.    1289.04  E(vib)   ...       0.01
freq.    1312.37  E(vib)   ...       0.01
freq.    1317.09  E(vib)   ...       0.01
freq.    1346.99  E(vib)   ...       0.01
freq.    1376.75  E(vib)   ...       0.01
freq.    1385.52  E(vib)   ...       0.00
freq.    1394.49  E(vib)   ...       0.00
freq.    1420.61  E(vib)   ...       0.00
freq.    1447.56  E(vib)   ...       0.00
freq.    1459.92  E(vib)   ...       0.00
freq.    1469.02  E(vib)   ...       0.00
freq.    1490.94  E(vib)   ...       0.00
freq.    1497.10  E(vib)   ...       0.00
freq.    1502.69  E(vib)   ...       0.00
freq.    1511.85  E(vib)   ...       0.00
freq.    1518.35  E(vib)   ...       0.00
freq.    1526.23  E(vib)   ...       0.00
freq.    1534.60  E(vib)   ...       0.00
freq.    1536.60  E(vib)   ...       0.00
freq.    1547.36  E(vib)   ...       0.00
freq.    1569.24  E(vib)   ...       0.00
freq.    1571.23  E(vib)   ...       0.00
freq.    1653.61  E(vib)   ...       0.00
freq.    1681.35  E(vib)   ...       0.00
freq.    1745.76  E(vib)   ...       0.00
freq.    1748.33  E(vib)   ...       0.00
freq.    3021.12  E(vib)   ...       0.00
freq.    3031.11  E(vib)   ...       0.00
freq.    3036.05  E(vib)   ...       0.00
freq.    3065.64  E(vib)   ...       0.00
freq.    3065.83  E(vib)   ...       0.00
freq.    3076.03  E(vib)   ...       0.00
freq.    3083.32  E(vib)   ...       0.00
freq.    3099.78  E(vib)   ...       0.00
freq.    3131.07  E(vib)   ...       0.00
freq.    3166.81  E(vib)   ...       0.00
freq.    3169.63  E(vib)   ...       0.00
freq.    3176.05  E(vib)   ...       0.00
freq.    3178.64  E(vib)   ...       0.00
freq.    3184.86  E(vib)   ...       0.00
freq.    3190.72  E(vib)   ...       0.00
freq.    3218.11  E(vib)   ...       0.00
freq.    3225.28  E(vib)   ...       0.00
freq.    3744.73  E(vib)   ...       0.00

------------
INNER ENERGY
------------

The inner energy is: U= E(el) + E(ZPE) + E(vib) + E(rot) + E(trans)
    E(el)   - is the total energy from the electronic structure calculation
              = E(kin-el) + E(nuc-el) + E(el-el) + E(nuc-nuc)
    E(ZPE)  - the the zero temperature vibrational energy from the frequency calculation
    E(vib)  - the the finite temperature correction to E(ZPE) due to population
              of excited vibrational states
    E(rot)  - is the rotational thermal energy
    E(trans)- is the translational thermal energy

Summary of contributions to the inner energy U:
Electronic energy                ...   -840.96952846 Eh
Zero point energy                ...      0.30187564 Eh     189.43 kcal/mol
Thermal vibrational correction   ...      0.01577896 Eh       9.90 kcal/mol
Thermal rotational correction    ...      0.00141627 Eh       0.89 kcal/mol
Thermal translational correction ...      0.00141627 Eh       0.89 kcal/mol
-----------------------------------------------------------------------
Total thermal energy                   -840.64904131 Eh

Summary of corrections to the electronic energy:
(perhaps to be used in another calculation)
Total thermal correction                  0.01861151 Eh      11.68 kcal/mol
Non-thermal (ZPE) correction              0.30187564 Eh     189.43 kcal/mol
-----------------------------------------------------------------------
Total correction                          0.32048715 Eh     201.11 kcal/mol

--------
ENTHALPY
--------

The enthalpy is H = U + kB*T
                kB is Boltzmann's constant
Total free energy                 ...   -840.64904131 Eh
Thermal Enthalpy correction       ...      0.00094421 Eh       0.59 kcal/mol
-----------------------------------------------------------------------
Total Enthalpy                    ...   -840.64809710 Eh

Rotational constants in cm-1:     0.018738     0.009882     0.008102

                             ****ORCA TERMINATED NORMALLY****
TOTAL RUN TIME: 0 days 0 hours 34 minutes 23 seconds 992 msec
