                         Program Version 5.0.4 -  RELEASE  -
|  1> ! OPT FREQ B3LYP 6-31G(d) D4 AUTOAUX
|  2> ! CPCM
|  3>
|  4> %cpcm
|  5> epsilon 9.8629
|  6> refrac  1.4295
|  7> end
|  8>
|  9> %PAL NPROCS 4 END
| 10>
| 11> %maxcore 3375
| 12>
| 13> *xyzfile 0 1 /users/fjb15167/WWenergy/structures/Nfer.xyz
| 14>
| 15>                          ****END OF INPUT****
 Total Charge           Charge          ....    0
 Multiplicity           Mult            ....    1
 Number of Electrons    NEL             ....  134
Dispersion correction           -0.076852284
FINAL SINGLE POINT ENERGY      -805.082576044951
Dispersion correction            ... Starting D4
Dispersion correction           -0.076058802
FINAL SINGLE POINT ENERGY      -805.082996457460
Dispersion correction            ... Starting D4
Dispersion correction           -0.076563003
FINAL SINGLE POINT ENERGY      -805.083014147732
Dispersion correction            ... Starting D4
FINAL SINGLE POINT ENERGY      -805.083196165434
FINAL SINGLE POINT ENERGY      -805.083190890103
FINAL SINGLE POINT ENERGY      -805.083228337982
FINAL SINGLE POINT ENERGY      -805.083232559616
FINAL SINGLE POINT ENERGY      -805.083236535504
FINAL SINGLE POINT ENERGY      -805.083233543370
FINAL SINGLE POINT ENERGY      -805.083231550424
FINAL SINGLE POINT ENERGY      -805.083229138307
FINAL SINGLE POINT ENERGY      -805.083184550441
FINAL SINGLE POINT ENERGY      -805.083239965651
Dispersion correction           -0.076614638
FINAL SINGLE POINT ENERGY      -805.083241707336
Dispersion correction            ... Starting D4
Dispersion correction           -0.076635637
FINAL SINGLE POINT ENERGY      -805.083243061051
Dispersion correction            ... Starting D4
                    ***********************HURRAY********************

CARTESIAN COORDINATES (ANGSTROEM)
---------------------------------
  C     -2.722857   -1.346223   -1.037637
  H     -3.219379   -1.397822   -0.066074
  H     -3.155909   -2.087621   -1.712020
  H     -2.909591   -0.352472   -1.460228
  C     -1.231080   -1.618161   -0.968713
  N     -0.522387   -1.141055    0.106100
  C      0.861351   -1.657944    0.298355
  H      0.990105   -2.361003   -0.524379
  C      1.886921   -0.552297    0.109505
  C      2.223526   -0.177878   -1.200258
  C      2.470907    0.137819    1.177698
  C      3.107461    0.872349   -1.438489
  H      1.767830   -0.709490   -2.031818
  C      3.356478    1.194985    0.942214
  H      2.240265   -0.142417    2.201302
  C      3.674592    1.566965   -0.364162
  H      3.356712    1.149434   -2.459619
  H      3.797865    1.724263    1.782782
  H      4.363657    2.387399   -0.546605
  C     -1.105315   -0.383682    1.215693
  H     -1.624658   -1.042252    1.918907
  H     -0.273175    0.076781    1.759494
  C     -2.119933    0.727600    0.895741
  N     -1.786200    1.698872    0.008956
  O     -3.208456    0.706259    1.483187
  O     -0.680574   -2.254694   -1.875060
  C     -0.478414    1.848137   -0.617123
  H     -0.454719    1.396686   -1.616714
  H     -0.260829    2.916931   -0.712670
  H      0.301498    1.398402   -0.009140
  C     -2.790558    2.681210   -0.385286
  H     -2.522271    3.677320   -0.011416
  H     -2.851402    2.724378   -1.479189
  H     -3.755203    2.388875    0.026266
  C      0.983445   -2.441631    1.608790
  H      0.254048   -3.258528    1.621703
  H      1.987570   -2.872662    1.683667
  H      0.817683   -1.825831    2.498241

 Multiplicity           Mult            ....    1
 Number of Electrons    NEL             ....  134
 Basis Dimension        Dim             ....  292

ORBITAL ENERGIES
----------------

  NO   OCC          E(Eh)            E(eV)
   0   2.0000     -19.106857      -519.9240
   1   2.0000     -19.106501      -519.9143
   2   2.0000     -14.360207      -390.7611
   3   2.0000     -14.358295      -390.7091
   4   2.0000     -10.282887      -279.8116
   5   2.0000     -10.282053      -279.7889
   6   2.0000     -10.219513      -278.0871
   7   2.0000     -10.215424      -277.9758
   8   2.0000     -10.199886      -277.5530
   9   2.0000     -10.197497      -277.4880
  10   2.0000     -10.187486      -277.2156
  11   2.0000     -10.181293      -277.0471
  12   2.0000     -10.180804      -277.0338
  13   2.0000     -10.180436      -277.0237
  14   2.0000     -10.180326      -277.0207
  15   2.0000     -10.177780      -276.9515
  16   2.0000     -10.170242      -276.7463
  17   2.0000     -10.166118      -276.6341
  18   2.0000      -1.031268       -28.0622
  19   2.0000      -1.025487       -27.9049
  20   2.0000      -0.934338       -25.4246
  21   2.0000      -0.925683       -25.1891
  22   2.0000      -0.851479       -23.1699
  23   2.0000      -0.784175       -21.3385
  24   2.0000      -0.742665       -20.2089
  25   2.0000      -0.739646       -20.1268
  26   2.0000      -0.731326       -19.9004
  27   2.0000      -0.712959       -19.4006
  28   2.0000      -0.711098       -19.3500
  29   2.0000      -0.681017       -18.5314
  30   2.0000      -0.634637       -17.2694
  31   2.0000      -0.599562       -16.3149
  32   2.0000      -0.583040       -15.8653
  33   2.0000      -0.559501       -15.2248
  34   2.0000      -0.535012       -14.5584
  35   2.0000      -0.514674       -14.0050
  36   2.0000      -0.491954       -13.3867
  37   2.0000      -0.480829       -13.0840
  38   2.0000      -0.478949       -13.0329
  39   2.0000      -0.463599       -12.6152
  40   2.0000      -0.456405       -12.4194
  41   2.0000      -0.453337       -12.3359
  42   2.0000      -0.446976       -12.1628
  43   2.0000      -0.441019       -12.0007
  44   2.0000      -0.424288       -11.5455
  45   2.0000      -0.415805       -11.3146
  46   2.0000      -0.412985       -11.2379
  47   2.0000      -0.405647       -11.0382
  48   2.0000      -0.401475       -10.9247
  49   2.0000      -0.398510       -10.8440
  50   2.0000      -0.396522       -10.7899
  51   2.0000      -0.390647       -10.6300
  52   2.0000      -0.380562       -10.3556
  53   2.0000      -0.376129       -10.2350
  54   2.0000      -0.371991       -10.1224
  55   2.0000      -0.362078        -9.8527
  56   2.0000      -0.353976        -9.6322
  57   2.0000      -0.352365        -9.5883
  58   2.0000      -0.347871        -9.4661
  59   2.0000      -0.331876        -9.0308
  60   2.0000      -0.329246        -8.9592
  61   2.0000      -0.256745        -6.9864
  62   2.0000      -0.252926        -6.8825
  63   2.0000      -0.249479        -6.7887
  64   2.0000      -0.242025        -6.5858
  65   2.0000      -0.238088        -6.4787
  66   2.0000      -0.233361        -6.3501
  67   0.0000      -0.004548        -0.1238
  68   0.0000      -0.001015        -0.0276
  69   0.0000       0.019026         0.5177
  70   0.0000       0.026058         0.7091
  71   0.0000       0.086856         2.3635

MULLIKEN ATOMIC CHARGES
-----------------------
   0 C :   -0.568712
   1 H :    0.188563
   2 H :    0.182791
   3 H :    0.199296
   4 C :    0.536613
   5 N :   -0.380709
   6 C :   -0.074377
   7 H :    0.183250
   8 C :    0.147844
   9 C :   -0.185571
  10 C :   -0.200212
  11 C :   -0.147183
  12 H :    0.151150
  13 C :   -0.148847
  14 H :    0.152791
  15 C :   -0.145942
  16 H :    0.151119
  17 H :    0.151009
  18 H :    0.150452
  19 C :   -0.258030
  20 H :    0.189614
  21 H :    0.203478
  22 C :    0.519969
  23 N :   -0.357070
  24 O :   -0.539398
  25 O :   -0.533523
  26 C :   -0.337151
  27 H :    0.174338
  28 H :    0.174606
  29 H :    0.192263
  30 C :   -0.331701
  31 H :    0.172636
  32 H :    0.172506
  33 H :    0.187234
  34 C :   -0.469345
  35 H :    0.163859
  36 H :    0.166550
  37 H :    0.165841
Sum of atomic charges:    0.0000000

LOEWDIN ATOMIC CHARGES
----------------------
   0 C :   -0.397469
   1 H :    0.150065
   2 H :    0.152054
   3 H :    0.160046
   4 C :    0.116305
   5 N :   -0.074186
   6 C :   -0.056051
   7 H :    0.154137
   8 C :   -0.032658
   9 C :   -0.130577
  10 C :   -0.146213
  11 C :   -0.135026
  12 H :    0.141057
  13 C :   -0.135315
  14 H :    0.141212
  15 C :   -0.136861
  16 H :    0.140678
  17 H :    0.140482
  18 H :    0.140382
  19 C :   -0.180878
  20 H :    0.147140
  21 H :    0.159926
  22 C :    0.096405
  23 N :   -0.068798
  24 O :   -0.334453
  25 O :   -0.333284
  26 C :   -0.279972
  27 H :    0.133547
  28 H :    0.139271
  29 H :    0.148655
  30 C :   -0.278703
  31 H :    0.134402
  32 H :    0.135304
  33 H :    0.148464
  34 C :   -0.368161
  35 H :    0.136923
  36 H :    0.139894
  37 H :    0.132257

  Mayer bond orders larger than 0.100000
B(  0-C ,  1-H ) :   0.9153 B(  0-C ,  2-H ) :   0.9353 B(  0-C ,  3-H ) :   0.9188
B(  0-C ,  4-C ) :   0.9939 B(  4-C ,  5-N ) :   1.1496 B(  4-C , 25-O ) :   1.7623
B(  5-N ,  6-C ) :   0.9171 B(  5-N , 19-C ) :   0.9201 B(  6-C ,  7-H ) :   0.8936
B(  6-C ,  8-C ) :   0.9693 B(  6-C , 34-C ) :   1.0057 B(  8-C ,  9-C ) :   1.4155
B(  8-C , 10-C ) :   1.4250 B(  9-C , 11-C ) :   1.4454 B(  9-C , 12-H ) :   0.9144
B( 10-C , 13-C ) :   1.4195 B( 10-C , 14-H ) :   0.9156 B( 11-C , 15-C ) :   1.4328
B( 11-C , 16-H ) :   0.9262 B( 13-C , 15-C ) :   1.4603 B( 13-C , 17-H ) :   0.9263
B( 15-C , 18-H ) :   0.9269 B( 19-C , 20-H ) :   0.9120 B( 19-C , 21-H ) :   0.8991
B( 19-C , 22-C ) :   0.9451 B( 22-C , 23-N ) :   1.2012 B( 22-C , 24-O ) :   1.7468
B( 23-N , 26-C ) :   0.9443 B( 23-N , 30-C ) :   0.9443 B( 26-C , 27-H ) :   0.9299
B( 26-C , 28-H ) :   0.9353 B( 26-C , 29-H ) :   0.9162 B( 30-C , 31-H ) :   0.9367
B( 30-C , 32-H ) :   0.9369 B( 30-C , 33-H ) :   0.9252 B( 34-C , 35-H ) :   0.9423
B( 34-C , 36-H ) :   0.9410 B( 34-C , 37-H ) :   0.9302

Dispersion correction           -0.076629417
FINAL SINGLE POINT ENERGY      -805.083244884647

DIPOLE MOMENT
-------------
                                X             Y             Z
Electronic contribution:      2.45430      -2.38388      -0.50829
Nuclear contribution   :     -1.28318       3.75694       0.87595
                        -----------------------------------------
Total Dipole Moment    :      1.17111       1.37307       0.36766
                        -----------------------------------------
Magnitude (a.u.)       :      1.84174
Magnitude (Debye)      :      4.68132

Dispersion correction in the Hessian             ... Starting D4

VIBRATIONAL FREQUENCIES
-----------------------

Scaling factor for frequencies =  1.000000000  (already applied!)

   0:         0.00 cm**-1
   1:         0.00 cm**-1
   2:         0.00 cm**-1
   3:         0.00 cm**-1
   4:         0.00 cm**-1
   5:         0.00 cm**-1
   6:        34.28 cm**-1
   7:        49.74 cm**-1
   8:        51.81 cm**-1
   9:        67.00 cm**-1
  10:        70.18 cm**-1
  11:        88.28 cm**-1
  12:        99.80 cm**-1
  13:       118.96 cm**-1
  14:       154.99 cm**-1
  15:       171.42 cm**-1
  16:       187.29 cm**-1
  17:       201.49 cm**-1
  18:       210.74 cm**-1
  19:       232.30 cm**-1
  20:       244.65 cm**-1
  21:       267.99 cm**-1
  22:       278.16 cm**-1
  23:       314.63 cm**-1
  24:       324.06 cm**-1
  25:       354.57 cm**-1
  26:       404.19 cm**-1
  27:       417.07 cm**-1
  28:       441.89 cm**-1
  29:       457.47 cm**-1
  30:       516.78 cm**-1
  31:       550.74 cm**-1
  32:       581.03 cm**-1
  33:       595.55 cm**-1
  34:       615.59 cm**-1
  35:       630.07 cm**-1
  36:       636.45 cm**-1
  37:       682.18 cm**-1
  38:       718.27 cm**-1
  39:       757.72 cm**-1
  40:       777.51 cm**-1
  41:       795.93 cm**-1
  42:       819.13 cm**-1
  43:       868.57 cm**-1
  44:       927.63 cm**-1
  45:       938.50 cm**-1
  46:       981.93 cm**-1
  47:       999.03 cm**-1
  48:      1005.37 cm**-1
  49:      1009.97 cm**-1
  50:      1016.14 cm**-1
  51:      1022.79 cm**-1
  52:      1056.56 cm**-1
  53:      1060.36 cm**-1
  54:      1064.87 cm**-1
  55:      1085.77 cm**-1
  56:      1088.77 cm**-1
  57:      1101.03 cm**-1
  58:      1136.06 cm**-1
  59:      1149.11 cm**-1
  60:      1177.50 cm**-1
  61:      1184.66 cm**-1
  62:      1196.07 cm**-1
  63:      1202.29 cm**-1
  64:      1211.58 cm**-1
  65:      1241.12 cm**-1
  66:      1292.67 cm**-1
  67:      1306.45 cm**-1
  68:      1332.32 cm**-1
  69:      1336.22 cm**-1
  70:      1367.00 cm**-1
  71:      1385.77 cm**-1
  72:      1408.29 cm**-1
  73:      1416.97 cm**-1
  74:      1433.05 cm**-1
  75:      1441.50 cm**-1
  76:      1454.89 cm**-1
  77:      1463.86 cm**-1
  78:      1486.45 cm**-1
  79:      1494.98 cm**-1
  80:      1500.10 cm**-1
  81:      1504.16 cm**-1
  82:      1508.33 cm**-1
  83:      1510.33 cm**-1
  84:      1511.98 cm**-1
  85:      1516.42 cm**-1
  86:      1523.15 cm**-1
  87:      1525.70 cm**-1
  88:      1544.75 cm**-1
  89:      1553.87 cm**-1
  90:      1641.29 cm**-1
  91:      1661.49 cm**-1
  92:      1705.68 cm**-1
  93:      1716.40 cm**-1
  94:      3044.01 cm**-1
  95:      3051.91 cm**-1
  96:      3058.15 cm**-1
  97:      3068.84 cm**-1
  98:      3070.59 cm**-1
  99:      3097.77 cm**-1
 100:      3110.67 cm**-1
 101:      3112.19 cm**-1
 102:      3123.63 cm**-1
 103:      3128.56 cm**-1
 104:      3141.51 cm**-1
 105:      3144.33 cm**-1
 106:      3169.23 cm**-1
 107:      3185.20 cm**-1
 108:      3191.70 cm**-1
 109:      3193.70 cm**-1
 110:      3200.00 cm**-1
 111:      3207.55 cm**-1
 112:      3214.27 cm**-1
 113:      3218.54 cm**-1

IR SPECTRUM
-----------

 Mode   freq       eps      Int      T**2         TX        TY        TZ
       cm**-1   L/(mol*cm) km/mol    a.u.
----------------------------------------------------------------------------
  6:     34.28   0.000321    1.62  0.002924  ( 0.031139  0.008804 -0.043318)
  7:     49.74   0.000788    3.98  0.004947  (-0.030736 -0.052210 -0.035723)
  8:     51.81   0.000103    0.52  0.000623  ( 0.021954  0.009734  0.006793)
  9:     67.00   0.000425    2.15  0.001978  (-0.013950 -0.040519 -0.011889)
 10:     70.18   0.001253    6.33  0.005573  (-0.014837  0.063433 -0.036454)
 11:     88.28   0.000393    1.99  0.001391  (-0.011433  0.019918 -0.029385)
 12:     99.80   0.000745    3.76  0.002329  ( 0.011922  0.044265 -0.015083)
 13:    118.96   0.000329    1.66  0.000863  ( 0.014644 -0.004868 -0.024996)
 14:    154.99   0.000946    4.78  0.001905  ( 0.010990  0.041963  0.004800)
 15:    171.42   0.000953    4.81  0.001734  ( 0.035563  0.017372  0.012950)
 16:    187.29   0.000308    1.56  0.000513  ( 0.000620  0.019675 -0.011196)
 17:    201.49   0.000672    3.40  0.001041  ( 0.027171  0.009066  0.014836)
 18:    210.74   0.000270    1.37  0.000400  ( 0.014778  0.009315  0.009740)
 19:    232.30   0.000167    0.85  0.000225  ( 0.011314 -0.008585 -0.004808)
 20:    244.65   0.002219   11.21  0.002830  ( 0.018743  0.036033  0.034355)
 21:    267.99   0.000425    2.15  0.000494  (-0.016065  0.009204 -0.012315)
 22:    278.16   0.000291    1.47  0.000326  ( 0.013040 -0.007896  0.009697)
 23:    314.63   0.001780    9.00  0.001766  (-0.013306 -0.031810  0.024017)
 24:    324.06   0.000176    0.89  0.000170  (-0.002553  0.004991  0.011768)
 25:    354.57   0.000845    4.27  0.000744  ( 0.007662  0.025175  0.007154)
 26:    404.19   0.001521    7.68  0.001174  (-0.010044  0.023721 -0.022592)
 27:    417.07   0.000106    0.53  0.000079  (-0.005009 -0.007248  0.001256)
 28:    441.89   0.000871    4.40  0.000615  ( 0.005532  0.024179  0.000011)
 29:    457.47   0.002554   12.91  0.001743  (-0.032486  0.020785 -0.015975)
 30:    516.78   0.001106    5.59  0.000668  ( 0.012087  0.022224  0.005288)
 31:    550.74   0.006938   35.06  0.003931  ( 0.049020 -0.020433  0.033325)
 32:    581.03   0.005019   25.37  0.002696  (-0.020554  0.028167  0.038471)
 33:    595.55   0.001005    5.08  0.000526  ( 0.012413 -0.019298  0.000093)
 34:    615.59   0.008290   41.89  0.004203  ( 0.023304  0.060119 -0.006718)
 35:    630.07   0.000139    0.70  0.000069  (-0.003043  0.005178 -0.005732)
 36:    636.45   0.000375    1.89  0.000184  (-0.000636  0.013095 -0.003433)
 37:    682.18   0.002288   11.56  0.001047  ( 0.028394  0.015085 -0.003569)
 38:    718.27   0.010868   54.92  0.004722  ( 0.052341 -0.044490  0.001670)
 39:    757.72   0.003370   17.03  0.001388  ( 0.023249  0.029038 -0.002089)
 40:    777.51   0.004451   22.50  0.001787  (-0.011999  0.040522  0.000759)
 41:    795.93   0.000183    0.92  0.000072  ( 0.003769 -0.007546 -0.000646)
 42:    819.13   0.005331   26.94  0.002031  (-0.043076 -0.004864  0.012315)
 43:    868.57   0.000002    0.01  0.000001  (-0.000818 -0.000297  0.000047)
 44:    927.63   0.000315    1.59  0.000106  (-0.009658  0.003534  0.000318)
 45:    938.50   0.002124   10.74  0.000706  (-0.022418  0.013578  0.004409)
 46:    981.93   0.000032    0.16  0.000010  (-0.002715  0.000443  0.001642)
 47:    999.03   0.004355   22.01  0.001360  ( 0.018147  0.032032 -0.002235)
 48:   1005.37   0.000701    3.54  0.000218  (-0.007831  0.010230 -0.007183)
 49:   1009.97   0.008280   41.84  0.002558  (-0.005554  0.019561 -0.046314)
 50:   1016.14   0.000164    0.83  0.000050  ( 0.005293 -0.004710 -0.000102)
 51:   1022.79   0.002687   13.58  0.000820  (-0.001855 -0.024834  0.014126)
 52:   1056.56   0.002365   11.95  0.000698  ( 0.022997  0.012581  0.003369)
 53:   1060.36   0.003581   18.10  0.001054  (-0.003805 -0.032160 -0.002268)
 54:   1064.87   0.000970    4.90  0.000284  (-0.002179  0.006054 -0.015583)
 55:   1085.77   0.005331   26.94  0.001532  (-0.026656 -0.018338 -0.022030)
 56:   1088.77   0.001725    8.72  0.000495  (-0.019550  0.007040  0.007921)
 57:   1101.03   0.001220    6.16  0.000346  (-0.004527  0.006011 -0.017002)
 58:   1136.06   0.000705    3.56  0.000194  (-0.010004 -0.003922  0.008846)
 59:   1149.11   0.002990   15.11  0.000812  ( 0.020986 -0.016771 -0.009502)
 60:   1177.50   0.001431    7.23  0.000379  ( 0.015740  0.010363 -0.004908)
 61:   1184.66   0.000022    0.11  0.000006  (-0.000619  0.000475  0.002250)
 62:   1196.07   0.017087   86.35  0.004458  ( 0.016808  0.050923 -0.039780)
 63:   1202.29   0.023934  120.95  0.006212  ( 0.075369 -0.006572  0.022106)
 64:   1211.58   0.001022    5.17  0.000263  ( 0.015157 -0.002596  0.005175)
 65:   1241.12   0.009559   48.31  0.002403  ( 0.043369  0.021085  0.008829)
 66:   1292.67   0.009930   50.18  0.002397  (-0.014278  0.046753 -0.002744)
 67:   1306.45   0.003974   20.08  0.000949  ( 0.029224 -0.009608 -0.001682)
 68:   1332.32   0.046768  236.35  0.010954  (-0.046010 -0.032242 -0.088306)
 69:   1336.22   0.001853    9.36  0.000433  (-0.015952 -0.013320  0.000875)
 70:   1367.00   0.000071    0.36  0.000016  (-0.001839  0.000947 -0.003453)
 71:   1385.77   0.004099   20.71  0.000923  (-0.014956  0.004848  0.025998)
 72:   1408.29   0.001218    6.15  0.000270  ( 0.012684  0.010438 -0.000054)
 73:   1416.97   0.003698   18.69  0.000815  ( 0.023500 -0.011551  0.011350)
 74:   1433.05   0.002022   10.22  0.000440  ( 0.009935  0.018103  0.003732)
 75:   1441.50   0.016538   83.57  0.003580  ( 0.014854  0.046259 -0.034924)
 76:   1454.89   0.025993  131.36  0.005575  (-0.040626  0.012332 -0.061423)
 77:   1463.86   0.021687  109.60  0.004623  ( 0.025722  0.055873  0.028980)
 78:   1486.45   0.003292   16.64  0.000691  ( 0.023357  0.008184  0.008868)
 79:   1494.98   0.003464   17.50  0.000723  (-0.020930  0.013892  0.009588)
 80:   1500.10   0.001506    7.61  0.000313  ( 0.007505 -0.002264 -0.015870)
 81:   1504.16   0.003294   16.64  0.000683  ( 0.013367 -0.017435  0.014166)
 82:   1508.33   0.005912   29.88  0.001223  ( 0.022870  0.026083 -0.004458)
 83:   1510.33   0.004589   23.19  0.000948  (-0.016299 -0.013274 -0.022503)
 84:   1511.98   0.002584   13.06  0.000533  (-0.018401  0.013416  0.003829)
 85:   1516.42   0.004682   23.66  0.000964  (-0.001709 -0.018682 -0.024730)
 86:   1523.15   0.005503   27.81  0.001127  (-0.028469  0.003880 -0.017375)
 87:   1525.70   0.004846   24.49  0.000991  ( 0.011406  0.001727  0.029294)
 88:   1544.75   0.003422   17.29  0.000691  (-0.016553 -0.020424 -0.000356)
 89:   1553.87   0.015378   77.71  0.003088  (-0.015480  0.047288 -0.024748)
 90:   1641.29   0.001014    5.13  0.000193  ( 0.001466 -0.009435 -0.010084)
 91:   1661.49   0.000701    3.54  0.000132  ( 0.008920  0.006988  0.001791)
 92:   1705.68   0.106703  539.23  0.019522  (-0.035333  0.067831  0.116930)
 93:   1716.40   0.103095  521.00  0.018744  ( 0.101900  0.056347 -0.072010)
 94:   3044.01   0.008711   44.02  0.000893  ( 0.015594 -0.025304  0.003094)
 95:   3051.91   0.012179   61.55  0.001245  (-0.012474 -0.017989  0.027678)
 96:   3058.15   0.003251   16.43  0.000332  ( 0.003845 -0.011482  0.013605)
 97:   3068.84   0.006020   30.42  0.000612  ( 0.008374  0.001965 -0.023199)
 98:   3070.59   0.000852    4.30  0.000087  (-0.006250  0.000868 -0.006836)
 99:   3097.77   0.009487   47.95  0.000956  ( 0.006347  0.018764  0.023735)
100:   3110.67   0.005676   28.69  0.000569  (-0.002894 -0.023522 -0.002791)
101:   3112.19   0.001925    9.73  0.000193  ( 0.007675  0.004936 -0.010476)
102:   3123.63   0.006012   30.38  0.000601  ( 0.005817  0.018764  0.014653)
103:   3128.56   0.006701   33.86  0.000668  ( 0.025052  0.006239 -0.001362)
104:   3141.51   0.002037   10.30  0.000202  (-0.007676 -0.011648  0.002790)
105:   3144.33   0.003998   20.20  0.000397  ( 0.014978 -0.012955 -0.002147)
106:   3169.23   0.001908    9.64  0.000188  ( 0.000984  0.006736  0.011897)
107:   3185.20   0.000276    1.40  0.000027  ( 0.003622  0.003514 -0.001263)
108:   3191.70   0.000607    3.07  0.000059  (-0.000400  0.001291 -0.007585)
109:   3193.70   0.000835    4.22  0.000082  (-0.008961  0.000060  0.001114)
110:   3200.00   0.004712   23.81  0.000459  (-0.011712 -0.014550 -0.010516)
111:   3207.55   0.008702   43.98  0.000847  ( 0.009033  0.008250 -0.026400)
112:   3214.27   0.003135   15.85  0.000304  ( 0.011860  0.011132  0.006311)
113:   3218.54   0.000912    4.61  0.000088  ( 0.000771  0.000353 -0.009367)

--------------------------
THERMOCHEMISTRY AT 298.15K
--------------------------

Temperature         ... 298.15 K
Pressure            ... 1.00 atm
Total Mass          ... 248.33 AMU

Throughout the following assumptions are being made:
  (1) The electronic state is orbitally nondegenerate
  (2) There are no thermally accessible electronically excited states
  (3) Hindered rotations indicated by low frequency modes are not
      treated as such but are treated as vibrations and this may
      cause some error
  (4) All equations used are the standard statistical mechanics
      equations for an ideal gas
  (5) All vibrations are strictly harmonic

freq.      34.28  E(vib)   ...       0.54
freq.      49.74  E(vib)   ...       0.52
freq.      51.81  E(vib)   ...       0.52
freq.      67.00  E(vib)   ...       0.50
freq.      70.18  E(vib)   ...       0.50
freq.      88.28  E(vib)   ...       0.48
freq.      99.80  E(vib)   ...       0.46
freq.     118.96  E(vib)   ...       0.44
freq.     154.99  E(vib)   ...       0.40
freq.     171.42  E(vib)   ...       0.38
freq.     187.29  E(vib)   ...       0.36
freq.     201.49  E(vib)   ...       0.35
freq.     210.74  E(vib)   ...       0.34
freq.     232.30  E(vib)   ...       0.32
freq.     244.65  E(vib)   ...       0.31
freq.     267.99  E(vib)   ...       0.29
freq.     278.16  E(vib)   ...       0.28
freq.     314.63  E(vib)   ...       0.25
freq.     324.06  E(vib)   ...       0.25
freq.     354.57  E(vib)   ...       0.22
freq.     404.19  E(vib)   ...       0.19
freq.     417.07  E(vib)   ...       0.18
freq.     441.89  E(vib)   ...       0.17
freq.     457.47  E(vib)   ...       0.16
freq.     516.78  E(vib)   ...       0.13
freq.     550.74  E(vib)   ...       0.12
freq.     581.03  E(vib)   ...       0.11
freq.     595.55  E(vib)   ...       0.10
freq.     615.59  E(vib)   ...       0.10
freq.     630.07  E(vib)   ...       0.09
freq.     636.45  E(vib)   ...       0.09
freq.     682.18  E(vib)   ...       0.08
freq.     718.27  E(vib)   ...       0.07
freq.     757.72  E(vib)   ...       0.06
freq.     777.51  E(vib)   ...       0.05
freq.     795.93  E(vib)   ...       0.05
freq.     819.13  E(vib)   ...       0.05
freq.     868.57  E(vib)   ...       0.04
freq.     927.63  E(vib)   ...       0.03
freq.     938.50  E(vib)   ...       0.03
freq.     981.93  E(vib)   ...       0.02
freq.     999.03  E(vib)   ...       0.02
freq.    1005.37  E(vib)   ...       0.02
freq.    1009.97  E(vib)   ...       0.02
freq.    1016.14  E(vib)   ...       0.02
freq.    1022.79  E(vib)   ...       0.02
freq.    1056.56  E(vib)   ...       0.02
freq.    1060.36  E(vib)   ...       0.02
freq.    1064.87  E(vib)   ...       0.02
freq.    1085.77  E(vib)   ...       0.02
freq.    1088.77  E(vib)   ...       0.02
freq.    1101.03  E(vib)   ...       0.02
freq.    1136.06  E(vib)   ...       0.01
freq.    1149.11  E(vib)   ...       0.01
freq.    1177.50  E(vib)   ...       0.01
freq.    1184.66  E(vib)   ...       0.01
freq.    1196.07  E(vib)   ...       0.01
freq.    1202.29  E(vib)   ...       0.01
freq.    1211.58  E(vib)   ...       0.01
freq.    1241.12  E(vib)   ...       0.01
freq.    1292.67  E(vib)   ...       0.01
freq.    1306.45  E(vib)   ...       0.01
freq.    1332.32  E(vib)   ...       0.01
freq.    1336.22  E(vib)   ...       0.01
freq.    1367.00  E(vib)   ...       0.01
freq.    1385.77  E(vib)   ...       0.00
freq.    1408.29  E(vib)   ...       0.00
freq.    1416.97  E(vib)   ...       0.00
freq.    1433.05  E(vib)   ...       0.00
freq.    1441.50  E(vib)   ...       0.00
freq.    1454.89  E(vib)   ...       0.00
freq.    1463.86  E(vib)   ...       0.00
freq.    1486.45  E(vib)   ...       0.00
freq.    1494.98  E(vib)   ...       0.00
freq.    1500.10  E(vib)   ...       0.00
freq.    1504.16  E(vib)   ...       0.00
freq.    1508.33  E(vib)   ...       0.00
freq.    1510.33  E(vib)   ...       0.00
freq.    1511.98  E(vib)   ...       0.00
freq.    1516.42  E(vib)   ...       0.00
freq.    1523.15  E(vib)   ...       0.00
freq.    1525.70  E(vib)   ...       0.00
freq.    1544.75  E(vib)   ...       0.00
freq.    1553.87  E(vib)   ...       0.00
freq.    1641.29  E(vib)   ...       0.00
freq.    1661.49  E(vib)   ...       0.00
freq.    1705.68  E(vib)   ...       0.00
freq.    1716.40  E(vib)   ...       0.00
freq.    3044.01  E(vib)   ...       0.00
freq.    3051.91  E(vib)   ...       0.00
freq.    3058.15  E(vib)   ...       0.00
freq.    3068.84  E(vib)   ...       0.00
freq.    3070.59  E(vib)   ...       0.00
freq.    3097.77  E(vib)   ...       0.00
freq.    3110.67  E(vib)   ...       0.00
freq.    3112.19  E(vib)   ...       0.00
freq.    3123.63  E(vib)   ...       0.00
freq.    3128.56  E(vib)   ...       0.00
freq.    3141.51  E(vib)   ...       0.00
freq.    3144.33  E(vib)   ...       0.00
freq.    3169.23  E(vib)   ...       0.00
freq.    3185.20  E(vib)   ...       0.00
freq.    3191.70  E(vib)   ...       0.00
freq.    3193.70  E(vib)   ...       0.00
freq.    3200.00  E(vib)   ...       0.00
freq.    3207.55  E(vib)   ...       0.00
freq.    3214.27  E(vib)   ...       0.00
freq.    3218.54  E(vib)   ...       0.00

------------
INNER ENERGY
------------

The inner energy is: U= E(el) + E(ZPE) + E(vib) + E(rot) + E(trans)
    E(el)   - is the total energy from the electronic structure calculation
              = E(kin-el) + E(nuc-el) + E(el-el) + E(nuc-nuc)
    E(ZPE)  - the the zero temperature vibrational energy from the frequency calculation
    E(vib)  - the the finite temperature correction to E(ZPE) due to population
              of excited vibrational states
    E(rot)  - is the rotational thermal energy
    E(trans)- is the translational thermal energy

Summary of contributions to the inner energy U:
Electronic energy                ...   -805.08324488 Eh
Zero point energy                ...      0.32560033 Eh     204.32 kcal/mol
Thermal vibrational correction   ...      0.01600337 Eh      10.04 kcal/mol
Thermal rotational correction    ...      0.00141627 Eh       0.89 kcal/mol
Thermal translational correction ...      0.00141627 Eh       0.89 kcal/mol
-----------------------------------------------------------------------
Total thermal energy                   -804.73880864 Eh

Summary of corrections to the electronic energy:
(perhaps to be used in another calculation)
Total thermal correction                  0.01883591 Eh      11.82 kcal/mol
Non-thermal (ZPE) correction              0.32560033 Eh     204.32 kcal/mol
-----------------------------------------------------------------------
Total correction                          0.34443624 Eh     216.14 kcal/mol

--------
ENTHALPY
--------

Rotational constants in cm-1:     0.018999     0.011075     0.009310

                             ****ORCA TERMINATED NORMALLY****
TOTAL RUN TIME: 0 days 0 hours 49 minutes 35 seconds 754 msec
