                         Program Version 5.0.4 -  RELEASE  -
|  1> ! OPT FREQ B3LYP 6-31G(d) D4 AUTOAUX
|  2> ! CPCM
|  3>
|  4> %cpcm
|  5> epsilon 9.8629
|  6> refrac  1.4295
|  7> end
|  8>
|  9> %PAL NPROCS 4 END
| 10>
| 11> %maxcore 3375
| 12>
| 13> *xyzfile 0 1 /users/fjb15167/WWenergy/structures/Nm.xyz
| 14>
| 15>                          ****END OF INPUT****
 Total Charge           Charge          ....    0
 Multiplicity           Mult            ....    1
 Number of Electrons    NEL             ....  118
Dispersion correction           -0.057381321
FINAL SINGLE POINT ENERGY     -1011.579136489646
Dispersion correction            ... Starting D4
Dispersion correction           -0.056497112
FINAL SINGLE POINT ENERGY     -1011.579888687843
Dispersion correction            ... Starting D4
Dispersion correction           -0.056915647
FINAL SINGLE POINT ENERGY     -1011.580151146808
Dispersion correction            ... Starting D4
FINAL SINGLE POINT ENERGY     -1011.580225594032
FINAL SINGLE POINT ENERGY     -1011.580286999299
FINAL SINGLE POINT ENERGY     -1011.580311970403
FINAL SINGLE POINT ENERGY     -1011.580321928980
Dispersion correction           -0.057233440
FINAL SINGLE POINT ENERGY     -1011.580328201530
Dispersion correction            ... Starting D4
Dispersion correction           -0.057263910
FINAL SINGLE POINT ENERGY     -1011.580331118388
Dispersion correction            ... Starting D4
                    ***********************HURRAY********************

CARTESIAN COORDINATES (ANGSTROEM)
---------------------------------
  C     -1.445895    3.044761   -0.557129
  H     -0.730649    2.868740   -1.366623
  H     -0.978769    3.732492    0.157270
  H     -2.340440    3.515815   -0.967152
  C     -1.870687    1.757255    0.125712
  O     -3.065447    1.451285    0.216904
  N     -0.882489    0.958972    0.637610
  C     -1.246082   -0.239689    1.392873
  H     -0.893027   -0.139619    2.423950
  H     -2.333335   -0.313214    1.398031
  C      0.548629    1.269304    0.558378
  H      0.704257    2.348200    0.622860
  H      1.016649    0.824196    1.440184
  C      1.205144    0.721351   -0.717683
  H      0.932102   -0.323615   -0.883228
  H      0.881572    1.290855   -1.593945
  C     -0.570418   -1.505808    0.850329
  N     -1.011318   -2.020266   -0.328263
  O      0.365845   -2.005988    1.488099
  C     -2.026737   -1.416513   -1.183525
  H     -1.560198   -0.937722   -2.055373
  H     -2.700962   -2.201521   -1.543750
  H     -2.615309   -0.670627   -0.652382
  C     -0.308177   -3.158773   -0.909675
  H      0.331416   -2.834470   -1.742187
  H      0.309176   -3.625292   -0.143740
  H     -1.037643   -3.880892   -1.291424
  S      3.031459    0.843685   -0.689412
  C      3.422686   -0.417574    0.581139
  H      2.854075   -1.331996    0.391060
  H      4.492594   -0.627841    0.502974
  H      3.202977   -0.056491    1.589116

 Multiplicity           Mult            ....    1
 Number of Electrons    NEL             ....  118
 Basis Dimension        Dim             ....  236

ORBITAL ENERGIES
----------------

  NO   OCC          E(Eh)            E(eV)
   0   2.0000     -88.850837     -2417.7542
   1   2.0000     -19.111418      -520.0481
   2   2.0000     -19.109216      -519.9882
   3   2.0000     -14.363877      -390.8610
   4   2.0000     -14.361378      -390.7930
   5   2.0000     -10.285859      -279.8924
   6   2.0000     -10.281150      -279.7643
   7   2.0000     -10.216969      -278.0179
   8   2.0000     -10.212940      -277.9082
   9   2.0000     -10.203575      -277.6534
  10   2.0000     -10.200661      -277.5741
  11   2.0000     -10.197511      -277.4884
  12   2.0000     -10.190646      -277.3016
  13   2.0000     -10.175213      -276.8816
  14   2.0000      -7.926785      -215.6988
  15   2.0000      -5.891151      -160.3064
  16   2.0000      -5.887468      -160.2062
  17   2.0000      -5.880757      -160.0235
  18   2.0000      -1.034626       -28.1536
  19   2.0000      -1.027516       -27.9601
  20   2.0000      -0.937062       -25.4987
  21   2.0000      -0.928538       -25.2668
  22   2.0000      -0.803157       -21.8550
  23   2.0000      -0.760813       -20.7028
  24   2.0000      -0.735110       -20.0034
  25   2.0000      -0.718410       -19.5489
  26   2.0000      -0.707244       -19.2451
  27   2.0000      -0.673666       -18.3314
  28   2.0000      -0.661256       -17.9937
  29   2.0000      -0.587846       -15.9961
  30   2.0000      -0.554162       -15.0795
  31   2.0000      -0.538808       -14.6617
  32   2.0000      -0.513382       -13.9698
  33   2.0000      -0.489194       -13.3117
  34   2.0000      -0.480019       -13.0620
  35   2.0000      -0.466196       -12.6858
  36   2.0000      -0.457225       -12.4417
  37   2.0000      -0.451569       -12.2878
  38   2.0000      -0.446842       -12.1592
  39   2.0000      -0.424235       -11.5440
  40   2.0000      -0.416812       -11.3420
  41   2.0000      -0.413243       -11.2449
  42   2.0000      -0.404166       -10.9979
  43   2.0000      -0.398580       -10.8459
  44   2.0000      -0.397161       -10.8073
  45   2.0000      -0.394631       -10.7385
  46   2.0000      -0.389784       -10.6066
  47   2.0000      -0.388622       -10.5750
  48   2.0000      -0.375695       -10.2232
  49   2.0000      -0.373377       -10.1601
  50   2.0000      -0.359536        -9.7835
  51   2.0000      -0.352151        -9.5825
  52   2.0000      -0.347024        -9.4430
  53   2.0000      -0.309414        -8.4196
  54   2.0000      -0.260809        -7.0970
  55   2.0000      -0.253966        -6.9108
  56   2.0000      -0.241595        -6.5741
  57   2.0000      -0.238850        -6.4994
  58   2.0000      -0.221207        -6.0193
  59   0.0000       0.011481         0.3124
  60   0.0000       0.026385         0.7180
  61   0.0000       0.047045         1.2802
  62   0.0000       0.077017         2.0957
  63   0.0000       0.086061         2.3418

MULLIKEN ATOMIC CHARGES
-----------------------
   0 C :   -0.562747
   1 H :    0.192764
   2 H :    0.197449
   3 H :    0.183955
   4 C :    0.531399
   5 O :   -0.527868
   6 N :   -0.372828
   7 C :   -0.248492
   8 H :    0.183223
   9 H :    0.207291
  10 C :   -0.164128
  11 H :    0.187344
  12 H :    0.188383
  13 C :   -0.434452
  14 H :    0.204144
  15 H :    0.200330
  16 C :    0.514337
  17 N :   -0.358878
  18 O :   -0.534303
  19 C :   -0.346914
  20 H :    0.170182
  21 H :    0.173655
  22 H :    0.197331
  23 C :   -0.331160
  24 H :    0.171498
  25 H :    0.187941
  26 H :    0.172475
  27 S :    0.025623
  28 C :   -0.597046
  29 H :    0.197231
  30 H :    0.196253
  31 H :    0.196007
Sum of atomic charges:    0.0000000

LOEWDIN ATOMIC CHARGES
----------------------
   0 C :   -0.392480
   1 H :    0.153009
   2 H :    0.157734
   3 H :    0.151683
   4 C :    0.116183
   5 O :   -0.330458
   6 N :   -0.071038
   7 C :   -0.178315
   8 H :    0.146174
   9 H :    0.160900
  10 C :   -0.167301
  11 H :    0.146915
  12 H :    0.145353
  13 C :   -0.344077
  14 H :    0.146562
  15 H :    0.152004
  16 C :    0.092791
  17 N :   -0.069155
  18 O :   -0.333195
  19 C :   -0.285490
  20 H :    0.131854
  21 H :    0.137151
  22 H :    0.149862
  23 C :   -0.279988
  24 H :    0.132098
  25 H :    0.148404
  26 H :    0.137120
  27 S :    0.074000
  28 C :   -0.470426
  29 H :    0.146068
  30 H :    0.154522
  31 H :    0.141536

  Mayer bond orders larger than 0.100000
B(  0-C ,  1-H ) :   0.9193 B(  0-C ,  2-H ) :   0.9206 B(  0-C ,  3-H ) :   0.9382
B(  0-C ,  4-C ) :   0.9936 B(  4-C ,  5-O ) :   1.7530 B(  4-C ,  6-N ) :   1.1565
B(  6-N ,  7-C ) :   0.9498 B(  6-N , 10-C ) :   0.9257 B(  7-C ,  8-H ) :   0.9159
B(  7-C ,  9-H ) :   0.8928 B(  7-C , 16-C ) :   0.9376 B( 10-C , 11-H ) :   0.9231
B( 10-C , 12-H ) :   0.9205 B( 10-C , 13-C ) :   0.9691 B( 13-C , 14-H ) :   0.9090
B( 13-C , 15-H ) :   0.9191 B( 13-C , 27-S ) :   0.9792 B( 16-C , 17-N ) :   1.1950
B( 16-C , 18-O ) :   1.7446 B( 17-N , 18-O ) :   0.1006 B( 17-N , 19-C ) :   0.9497
B( 17-N , 23-C ) :   0.9467 B( 19-C , 20-H ) :   0.9311 B( 19-C , 21-H ) :   0.9342
B( 19-C , 22-H ) :   0.9019 B( 23-C , 24-H ) :   0.9338 B( 23-C , 25-H ) :   0.9255
B( 23-C , 26-H ) :   0.9371 B( 27-S , 28-C ) :   0.9830 B( 28-C , 29-H ) :   0.9221
B( 28-C , 30-H ) :   0.9337 B( 28-C , 31-H ) :   0.9299

Dispersion correction           -0.057267084
FINAL SINGLE POINT ENERGY     -1011.580333567622

DIPOLE MOMENT
-------------
                                X             Y             Z
Electronic contribution:      0.57717       2.39884       3.20394
Nuclear contribution   :     -0.53446      -2.37759      -4.01462
                        -----------------------------------------
Total Dipole Moment    :      0.04271       0.02125      -0.81068
                        -----------------------------------------
Magnitude (a.u.)       :      0.81209
Magnitude (Debye)      :      2.06416

Dispersion correction in the Hessian             ... Starting D4

VIBRATIONAL FREQUENCIES
-----------------------

Scaling factor for frequencies =  1.000000000  (already applied!)

   0:         0.00 cm**-1
   1:         0.00 cm**-1
   2:         0.00 cm**-1
   3:         0.00 cm**-1
   4:         0.00 cm**-1
   5:         0.00 cm**-1
   6:        34.55 cm**-1
   7:        47.99 cm**-1
   8:        53.84 cm**-1
   9:        62.90 cm**-1
  10:        74.26 cm**-1
  11:        85.55 cm**-1
  12:       102.96 cm**-1
  13:       123.38 cm**-1
  14:       135.10 cm**-1
  15:       151.32 cm**-1
  16:       159.37 cm**-1
  17:       167.17 cm**-1
  18:       208.45 cm**-1
  19:       227.51 cm**-1
  20:       257.32 cm**-1
  21:       277.30 cm**-1
  22:       315.52 cm**-1
  23:       352.08 cm**-1
  24:       374.12 cm**-1
  25:       384.58 cm**-1
  26:       432.53 cm**-1
  27:       462.54 cm**-1
  28:       493.92 cm**-1
  29:       579.94 cm**-1
  30:       599.62 cm**-1
  31:       626.32 cm**-1
  32:       687.53 cm**-1
  33:       699.48 cm**-1
  34:       741.50 cm**-1
  35:       760.58 cm**-1
  36:       784.98 cm**-1
  37:       831.67 cm**-1
  38:       958.23 cm**-1
  39:       969.15 cm**-1
  40:       991.81 cm**-1
  41:      1002.69 cm**-1
  42:      1010.99 cm**-1
  43:      1035.97 cm**-1
  44:      1048.64 cm**-1
  45:      1062.63 cm**-1
  46:      1088.75 cm**-1
  47:      1101.92 cm**-1
  48:      1135.32 cm**-1
  49:      1168.12 cm**-1
  50:      1184.41 cm**-1
  51:      1218.58 cm**-1
  52:      1250.43 cm**-1
  53:      1285.09 cm**-1
  54:      1289.13 cm**-1
  55:      1291.91 cm**-1
  56:      1340.74 cm**-1
  57:      1371.40 cm**-1
  58:      1385.83 cm**-1
  59:      1403.75 cm**-1
  60:      1417.00 cm**-1
  61:      1441.47 cm**-1
  62:      1457.60 cm**-1
  63:      1473.43 cm**-1
  64:      1479.51 cm**-1
  65:      1482.43 cm**-1
  66:      1488.47 cm**-1
  67:      1490.87 cm**-1
  68:      1501.34 cm**-1
  69:      1504.51 cm**-1
  70:      1505.48 cm**-1
  71:      1510.64 cm**-1
  72:      1518.63 cm**-1
  73:      1529.08 cm**-1
  74:      1533.06 cm**-1
  75:      1556.49 cm**-1
  76:      1708.57 cm**-1
  77:      1712.74 cm**-1
  78:      3034.37 cm**-1
  79:      3039.05 cm**-1
  80:      3066.35 cm**-1
  81:      3067.34 cm**-1
  82:      3085.72 cm**-1
  83:      3091.72 cm**-1
  84:      3095.94 cm**-1
  85:      3102.40 cm**-1
  86:      3103.43 cm**-1
  87:      3132.01 cm**-1
  88:      3138.69 cm**-1
  89:      3153.10 cm**-1
  90:      3157.50 cm**-1
  91:      3162.16 cm**-1
  92:      3168.50 cm**-1
  93:      3173.09 cm**-1
  94:      3191.06 cm**-1
  95:      3193.77 cm**-1

IR SPECTRUM
-----------

 Mode   freq       eps      Int      T**2         TX        TY        TZ
       cm**-1   L/(mol*cm) km/mol    a.u.
----------------------------------------------------------------------------
  6:     34.55   0.000376    1.90  0.003397  ( 0.028777  0.003255 -0.050577)
  7:     47.99   0.000847    4.28  0.005505  ( 0.044022  0.057223 -0.017114)
  8:     53.84   0.000306    1.55  0.001773  (-0.026515  0.025325 -0.020701)
  9:     62.90   0.000410    2.07  0.002034  (-0.033336  0.025589 -0.016374)
 10:     74.26   0.001394    7.04  0.005856  (-0.053166 -0.018560  0.051819)
 11:     85.55   0.000558    2.82  0.002036  (-0.003944  0.037929 -0.024130)
 12:    102.96   0.002741   13.85  0.008309  ( 0.018411 -0.068025 -0.057818)
 13:    123.38   0.001233    6.23  0.003119  ( 0.012645  0.038534  0.038402)
 14:    135.10   0.001165    5.89  0.002692  (-0.007803 -0.051296 -0.000114)
 15:    151.32   0.000167    0.85  0.000345  ( 0.010542  0.014809  0.003827)
 16:    159.37   0.000317    1.60  0.000621  ( 0.001407  0.020660 -0.013871)
 17:    167.17   0.000002    0.01  0.000005  ( 0.001660  0.000798  0.001072)
 18:    208.45   0.000788    3.98  0.001179  (-0.009827 -0.032651 -0.004056)
 19:    227.51   0.000178    0.90  0.000244  ( 0.011674 -0.004810 -0.009204)
 20:    257.32   0.001524    7.70  0.001849  (-0.019710 -0.032859  0.019505)
 21:    277.30   0.001372    6.93  0.001544  ( 0.026044  0.029068  0.004529)
 22:    315.52   0.000560    2.83  0.000554  (-0.021772 -0.004709  0.007590)
 23:    352.08   0.002669   13.49  0.002366  (-0.013024 -0.012206 -0.045249)
 24:    374.12   0.003109   15.71  0.002593  (-0.015786  0.043338  0.021578)
 25:    384.58   0.001814    9.17  0.001472  (-0.006917  0.018405  0.032947)
 26:    432.53   0.000094    0.48  0.000068  ( 0.003027  0.007648 -0.000433)
 27:    462.54   0.002707   13.68  0.001827  (-0.042061  0.005495  0.005222)
 28:    493.92   0.004399   22.23  0.002779  ( 0.019646  0.038970 -0.029571)
 29:    579.94   0.003894   19.68  0.002095  (-0.022468  0.035215  0.018715)
 30:    599.62   0.002549   12.88  0.001327  ( 0.025505 -0.022556 -0.012933)
 31:    626.32   0.004571   23.10  0.002277  ( 0.026200  0.004597  0.039622)
 32:    687.53   0.002443   12.35  0.001109  ( 0.011332  0.016560 -0.026574)
 33:    699.48   0.000919    4.64  0.000410  (-0.014953 -0.012876 -0.004547)
 34:    741.50   0.001691    8.54  0.000712  ( 0.015773  0.018752 -0.010540)
 35:    760.58   0.003030   15.31  0.001243  (-0.003931  0.032592  0.012871)
 36:    784.98   0.002451   12.38  0.000974  (-0.029338  0.006167 -0.008690)
 37:    831.67   0.004089   20.66  0.001534  ( 0.016237  0.021420  0.028494)
 38:    958.23   0.000478    2.41  0.000156  (-0.008011  0.000052 -0.009559)
 39:    969.15   0.002631   13.30  0.000847  (-0.014737 -0.021716  0.012590)
 40:    991.81   0.001565    7.91  0.000492  ( 0.007490 -0.008228 -0.019200)
 41:   1002.69   0.005230   26.43  0.001628  ( 0.010442  0.014034  0.036355)
 42:   1010.99   0.007128   36.02  0.002200  (-0.036943  0.026661  0.011165)
 43:   1035.97   0.002452   12.39  0.000739  (-0.003609  0.014711  0.022562)
 44:   1048.64   0.006204   31.35  0.001846  ( 0.040174 -0.012651  0.008494)
 45:   1062.63   0.002101   10.62  0.000617  (-0.004653 -0.011160 -0.021701)
 46:   1088.75   0.002494   12.60  0.000715  ( 0.019733 -0.017346  0.004957)
 47:   1101.92   0.003508   17.73  0.000993  (-0.003012  0.002421 -0.031280)
 48:   1135.32   0.000553    2.79  0.000152  (-0.003163  0.011835 -0.001339)
 49:   1168.12   0.015358   77.61  0.004103  (-0.042406 -0.031441 -0.036278)
 50:   1184.41   0.000961    4.86  0.000253  (-0.008548 -0.007140 -0.011367)
 51:   1218.58   0.009954   50.30  0.002549  (-0.001717  0.016029 -0.047845)
 52:   1250.43   0.015872   80.21  0.003961  ( 0.041729 -0.044941  0.014143)
 53:   1285.09   0.006426   32.47  0.001560  ( 0.002583  0.004136  0.039199)
 54:   1289.13   0.017408   87.97  0.004214  ( 0.040848 -0.050416  0.001921)
 55:   1291.91   0.017260   87.23  0.004169  ( 0.014139 -0.059455  0.020843)
 56:   1340.74   0.005616   28.38  0.001307  ( 0.028067 -0.021618  0.007208)
 57:   1371.40   0.000404    2.04  0.000092  ( 0.006633  0.004638  0.005131)
 58:   1385.83   0.000736    3.72  0.000166  ( 0.003798  0.003228 -0.011866)
 59:   1403.75   0.009486   47.94  0.002109  ( 0.045058 -0.005080 -0.007262)
 60:   1417.00   0.003937   19.89  0.000867  ( 0.010818 -0.022917  0.014991)
 61:   1441.47   0.012757   64.47  0.002762  (-0.015501 -0.024326 -0.043930)
 62:   1457.60   0.018256   92.26  0.003908  ( 0.001562 -0.052009 -0.034657)
 63:   1473.43   0.043009  217.35  0.009109  ( 0.072412 -0.054803  0.029365)
 64:   1479.51   0.007286   36.82  0.001537  ( 0.025899 -0.029422 -0.000628)
 65:   1482.43   0.005279   26.68  0.001111  (-0.032775 -0.001020  0.006009)
 66:   1488.47   0.001478    7.47  0.000310  ( 0.005217 -0.015351 -0.006852)
 67:   1490.87   0.000702    3.55  0.000147  ( 0.002760 -0.006653  0.009753)
 68:   1501.34   0.001776    8.97  0.000369  (-0.015807 -0.009276 -0.005766)
 69:   1504.51   0.003415   17.26  0.000708  ( 0.000348  0.004657 -0.026202)
 70:   1505.48   0.003765   19.03  0.000781  ( 0.005629  0.027269  0.002291)
 71:   1510.64   0.000992    5.02  0.000205  ( 0.007998 -0.011151  0.004087)
 72:   1518.63   0.003852   19.47  0.000792  ( 0.015836  0.022079 -0.007303)
 73:   1529.08   0.009306   47.03  0.001899  (-0.036061  0.005860 -0.023757)
 74:   1533.06   0.005605   28.32  0.001141  (-0.007905 -0.019118  0.026700)
 75:   1556.49   0.016305   82.40  0.003269  ( 0.008192 -0.036168 -0.043518)
 76:   1708.57   0.193894  979.86  0.035414  ( 0.168722 -0.010931  0.082628)
 77:   1712.74   0.033959  171.62  0.006187  (-0.033501 -0.012551  0.070054)
 78:   3034.37   0.005109   25.82  0.000525  (-0.017611  0.012607 -0.007508)
 79:   3039.05   0.018245   92.20  0.001873  (-0.002558  0.008270  0.042409)
 80:   3066.35   0.000682    3.44  0.000069  (-0.004760 -0.006532  0.002014)
 81:   3067.34   0.004318   21.82  0.000439  (-0.004767  0.013337 -0.015449)
 82:   3085.72   0.006056   30.60  0.000612  ( 0.003092 -0.007454  0.023394)
 83:   3091.72   0.000600    3.03  0.000061  (-0.005825  0.001702 -0.004867)
 84:   3095.94   0.011943   60.36  0.001204  ( 0.024454  0.024609  0.000472)
 85:   3102.40   0.005757   29.09  0.000579  (-0.012423 -0.004732 -0.020058)
 86:   3103.43   0.007757   39.20  0.000780  ( 0.019018  0.020148  0.003515)
 87:   3132.01   0.001921    9.71  0.000191  ( 0.001369 -0.004161 -0.013125)
 88:   3138.69   0.000117    0.59  0.000012  ( 0.003184 -0.001212 -0.000028)
 89:   3153.10   0.003341   16.88  0.000331  ( 0.004098 -0.013143 -0.011881)
 90:   3157.50   0.004920   24.86  0.000486  (-0.000090 -0.019310  0.010646)
 91:   3162.16   0.001162    5.87  0.000115  ( 0.010364  0.002686  0.000172)
 92:   3168.50   0.001340    6.77  0.000132  (-0.000996  0.010760  0.003895)
 93:   3173.09   0.002489   12.58  0.000245  ( 0.014633 -0.004645  0.003012)
 94:   3191.06   0.000977    4.94  0.000096  (-0.004550  0.007655 -0.004026)
 95:   3193.77   0.000505    2.55  0.000049  ( 0.004132  0.005669 -0.000409)

--------------------------
THERMOCHEMISTRY AT 298.15K
--------------------------

Temperature         ... 298.15 K
Pressure            ... 1.00 atm
Total Mass          ... 218.31 AMU

Throughout the following assumptions are being made:
  (1) The electronic state is orbitally nondegenerate
  (2) There are no thermally accessible electronically excited states
  (3) Hindered rotations indicated by low frequency modes are not
      treated as such but are treated as vibrations and this may
      cause some error
  (4) All equations used are the standard statistical mechanics
      equations for an ideal gas
  (5) All vibrations are strictly harmonic

freq.      34.55  E(vib)   ...       0.54
freq.      47.99  E(vib)   ...       0.53
freq.      53.84  E(vib)   ...       0.52
freq.      62.90  E(vib)   ...       0.51
freq.      74.26  E(vib)   ...       0.49
freq.      85.55  E(vib)   ...       0.48
freq.     102.96  E(vib)   ...       0.46
freq.     123.38  E(vib)   ...       0.43
freq.     135.10  E(vib)   ...       0.42
freq.     151.32  E(vib)   ...       0.40
freq.     159.37  E(vib)   ...       0.39
freq.     167.17  E(vib)   ...       0.39
freq.     208.45  E(vib)   ...       0.34
freq.     227.51  E(vib)   ...       0.33
freq.     257.32  E(vib)   ...       0.30
freq.     277.30  E(vib)   ...       0.28
freq.     315.52  E(vib)   ...       0.25
freq.     352.08  E(vib)   ...       0.23
freq.     374.12  E(vib)   ...       0.21
freq.     384.58  E(vib)   ...       0.20
freq.     432.53  E(vib)   ...       0.18
freq.     462.54  E(vib)   ...       0.16
freq.     493.92  E(vib)   ...       0.14
freq.     579.94  E(vib)   ...       0.11
freq.     599.62  E(vib)   ...       0.10
freq.     626.32  E(vib)   ...       0.09
freq.     687.53  E(vib)   ...       0.07
freq.     699.48  E(vib)   ...       0.07
freq.     741.50  E(vib)   ...       0.06
freq.     760.58  E(vib)   ...       0.06
freq.     784.98  E(vib)   ...       0.05
freq.     831.67  E(vib)   ...       0.04
freq.     958.23  E(vib)   ...       0.03
freq.     969.15  E(vib)   ...       0.03
freq.     991.81  E(vib)   ...       0.02
freq.    1002.69  E(vib)   ...       0.02
freq.    1010.99  E(vib)   ...       0.02
freq.    1035.97  E(vib)   ...       0.02
freq.    1048.64  E(vib)   ...       0.02
freq.    1062.63  E(vib)   ...       0.02
freq.    1088.75  E(vib)   ...       0.02
freq.    1101.92  E(vib)   ...       0.02
freq.    1135.32  E(vib)   ...       0.01
freq.    1168.12  E(vib)   ...       0.01
freq.    1184.41  E(vib)   ...       0.01
freq.    1218.58  E(vib)   ...       0.01
freq.    1250.43  E(vib)   ...       0.01
freq.    1285.09  E(vib)   ...       0.01
freq.    1289.13  E(vib)   ...       0.01
freq.    1291.91  E(vib)   ...       0.01
freq.    1340.74  E(vib)   ...       0.01
freq.    1371.40  E(vib)   ...       0.01
freq.    1385.83  E(vib)   ...       0.00
freq.    1403.75  E(vib)   ...       0.00
freq.    1417.00  E(vib)   ...       0.00
freq.    1441.47  E(vib)   ...       0.00
freq.    1457.60  E(vib)   ...       0.00
freq.    1473.43  E(vib)   ...       0.00
freq.    1479.51  E(vib)   ...       0.00
freq.    1482.43  E(vib)   ...       0.00
freq.    1488.47  E(vib)   ...       0.00
freq.    1490.87  E(vib)   ...       0.00
freq.    1501.34  E(vib)   ...       0.00
freq.    1504.51  E(vib)   ...       0.00
freq.    1505.48  E(vib)   ...       0.00
freq.    1510.64  E(vib)   ...       0.00
freq.    1518.63  E(vib)   ...       0.00
freq.    1529.08  E(vib)   ...       0.00
freq.    1533.06  E(vib)   ...       0.00
freq.    1556.49  E(vib)   ...       0.00
freq.    1708.57  E(vib)   ...       0.00
freq.    1712.74  E(vib)   ...       0.00
freq.    3034.37  E(vib)   ...       0.00
freq.    3039.05  E(vib)   ...       0.00
freq.    3066.35  E(vib)   ...       0.00
freq.    3067.34  E(vib)   ...       0.00
freq.    3085.72  E(vib)   ...       0.00
freq.    3091.72  E(vib)   ...       0.00
freq.    3095.94  E(vib)   ...       0.00
freq.    3102.40  E(vib)   ...       0.00
freq.    3103.43  E(vib)   ...       0.00
freq.    3132.01  E(vib)   ...       0.00
freq.    3138.69  E(vib)   ...       0.00
freq.    3153.10  E(vib)   ...       0.00
freq.    3157.50  E(vib)   ...       0.00
freq.    3162.16  E(vib)   ...       0.00
freq.    3168.50  E(vib)   ...       0.00
freq.    3173.09  E(vib)   ...       0.00
freq.    3191.06  E(vib)   ...       0.00
freq.    3193.77  E(vib)   ...       0.00

------------
INNER ENERGY
------------

The inner energy is: U= E(el) + E(ZPE) + E(vib) + E(rot) + E(trans)
    E(el)   - is the total energy from the electronic structure calculation
              = E(kin-el) + E(nuc-el) + E(el-el) + E(nuc-nuc)
    E(ZPE)  - the the zero temperature vibrational energy from the frequency calculation
    E(vib)  - the the finite temperature correction to E(ZPE) due to population
              of excited vibrational states
    E(rot)  - is the rotational thermal energy
    E(trans)- is the translational thermal energy

Summary of contributions to the inner energy U:
Electronic energy                ...  -1011.58033357 Eh
Zero point energy                ...      0.27419774 Eh     172.06 kcal/mol
Thermal vibrational correction   ...      0.01466200 Eh       9.20 kcal/mol
Thermal rotational correction    ...      0.00141627 Eh       0.89 kcal/mol
Thermal translational correction ...      0.00141627 Eh       0.89 kcal/mol
-----------------------------------------------------------------------
Total thermal energy                  -1011.28864129 Eh

Summary of corrections to the electronic energy:
(perhaps to be used in another calculation)
Total thermal correction                  0.01749454 Eh      10.98 kcal/mol
Non-thermal (ZPE) correction              0.27419774 Eh     172.06 kcal/mol
-----------------------------------------------------------------------
Total correction                          0.29169228 Eh     183.04 kcal/mol

--------
ENTHALPY
--------

The enthalpy is H = U + kB*T
                kB is Boltzmann's constant
Total free energy                 ...  -1011.28864129 Eh
Thermal Enthalpy correction       ...      0.00094421 Eh       0.59 kcal/mol
-----------------------------------------------------------------------
Total Enthalpy                    ...  -1011.28769708 Eh

Note: Only C1 symmetry has been detected, increase convergence thresholds
      if your molecule has a higher symmetry. Symmetry factor of 1.0 is
      used for the rotational entropy correction.

Note: Rotational entropy computed according to Herzberg
Infrared and Raman Spectra, Chapter V,1, Van Nostrand Reinhold, 1945
Point Group:  C1, Symmetry Number:   1
Rotational constants in cm-1:     0.021327     0.016608     0.011419

                             ****ORCA TERMINATED NORMALLY****
TOTAL RUN TIME: 0 days 0 hours 24 minutes 5 seconds 707 msec
