                         Program Version 5.0.4 -  RELEASE  -
|  1> ! OPT FREQ B3LYP 6-31G(d) D4 AUTOAUX
|  2>
|  3> %PAL NPROCS 4 END
|  4>
|  5> %maxcore 3375
|  6>
|  7> *xyzfile 0 1 /users/fjb15167/WWenergy/structures/Nfnap.xyz
|  8>
|  9>                          ****END OF INPUT****
 Total Charge           Charge          ....    0
 Multiplicity           Mult            ....    1
 Number of Electrons    NEL             ....  152
Dispersion correction           -0.094968134
FINAL SINGLE POINT ENERGY      -919.343041641923
Dispersion correction            ... Starting D4
Dispersion correction           -0.092680426
FINAL SINGLE POINT ENERGY      -919.343623226756
Dispersion correction            ... Starting D4
Dispersion correction           -0.094856393
FINAL SINGLE POINT ENERGY      -919.343667977427
Dispersion correction            ... Starting D4
FINAL SINGLE POINT ENERGY      -919.344182752804
FINAL SINGLE POINT ENERGY      -919.343948215429
FINAL SINGLE POINT ENERGY      -919.344326985504
FINAL SINGLE POINT ENERGY      -919.344346655487
FINAL SINGLE POINT ENERGY      -919.344370734319
FINAL SINGLE POINT ENERGY      -919.344386574164
Dispersion correction           -0.094274016
FINAL SINGLE POINT ENERGY      -919.344397151801
Dispersion correction            ... Starting D4
Dispersion correction           -0.094308631
FINAL SINGLE POINT ENERGY      -919.344400402939
Dispersion correction            ... Starting D4
                    ***********************HURRAY********************

CARTESIAN COORDINATES (ANGSTROEM)
---------------------------------
  C      4.430834   -0.002101    0.379731
  H      4.801635   -0.900480   -0.126263
  H      4.153364   -0.285568    1.402622
  H      5.231581    0.736696    0.428661
  C      3.270793    0.641092   -0.369279
  O      3.344933    1.806334   -0.752307
  N      2.145388   -0.119979   -0.587777
  C      2.065812   -1.541135   -0.262684
  H      2.331461   -2.155451   -1.131414
  H      2.769487   -1.769979    0.539733
  C      0.659945   -2.030563    0.128657
  N      0.102686   -1.572692    1.285075
  O      0.099171   -2.836209   -0.612862
  C      0.706772   -0.618657    2.199324
  H      0.048687    0.249775    2.319313
  H      0.860179   -1.080111    3.184911
  H      1.659667   -0.256362    1.821455
  C     -1.238310   -2.013191    1.645476
  H     -1.924352   -1.158305    1.668886
  H     -1.578687   -2.729957    0.900725
  H     -1.223751   -2.484039    2.637352
  C      1.091009    0.441260   -1.455372
  H      1.576285    1.194078   -2.080374
  H      0.740838   -0.363141   -2.103811
  C     -0.042799    1.087772   -0.674934
  C     -1.384037    0.586240   -0.688796
  C      0.262992    2.196595    0.093899
  C     -1.807547   -0.519436   -1.477850
  C     -2.366436    1.228656    0.141772
  C     -0.709363    2.828712    0.898801
  H      1.278409    2.579838    0.074556
  C     -3.107451   -0.970289   -1.439915
  H     -1.098886   -1.045666   -2.103714
  C     -3.698449    0.734348    0.160246
  C     -1.996646    2.346776    0.932008
  H     -0.431257    3.696751    1.490769
  C     -4.066551   -0.341561   -0.612945
  H     -3.395863   -1.823467   -2.047551
  H     -4.425671    1.233340    0.796955
  H     -2.753698    2.820802    1.552585
  H     -5.089171   -0.708725   -0.592672

 Multiplicity           Mult            ....    1
 Number of Electrons    NEL             ....  152
 Basis Dimension        Dim             ....  334

ORBITAL ENERGIES
----------------

  NO   OCC          E(Eh)            E(eV)
   0   2.0000     -19.107791      -519.9494
   1   2.0000     -19.104625      -519.8633
   2   2.0000     -14.363250      -390.8439
   3   2.0000     -14.360816      -390.7777
   4   2.0000     -10.284349      -279.8514
   5   2.0000     -10.280525      -279.7473
   6   2.0000     -10.226796      -278.2853
   7   2.0000     -10.212379      -277.8930
   8   2.0000     -10.211941      -277.8810
   9   2.0000     -10.196040      -277.4484
  10   2.0000     -10.189862      -277.2802
  11   2.0000     -10.188217      -277.2355
  12   2.0000     -10.188000      -277.2296
  13   2.0000     -10.186962      -277.2013
  14   2.0000     -10.180084      -277.0142
  15   2.0000     -10.179984      -277.0114
  16   2.0000     -10.179537      -276.9993
  17   2.0000     -10.179182      -276.9896
  18   2.0000     -10.177376      -276.9405
  19   2.0000     -10.175683      -276.8944
  20   2.0000     -10.172423      -276.8057
  21   2.0000      -1.033603       -28.1258
  22   2.0000      -1.027686       -27.9648
  23   2.0000      -0.937920       -25.5221
  24   2.0000      -0.928935       -25.2776
  25   2.0000      -0.867611       -23.6089
  26   2.0000      -0.815927       -22.2025
  27   2.0000      -0.783341       -21.3158
  28   2.0000      -0.749225       -20.3874
  29   2.0000      -0.746870       -20.3234
  30   2.0000      -0.733678       -19.9644
  31   2.0000      -0.721327       -19.6283
  32   2.0000      -0.715134       -19.4598
  33   2.0000      -0.684542       -18.6273
  34   2.0000      -0.671980       -18.2855
  35   2.0000      -0.616013       -16.7626
  36   2.0000      -0.606759       -16.5107
  37   2.0000      -0.581727       -15.8296
  38   2.0000      -0.554110       -15.0781
  39   2.0000      -0.544416       -14.8143
  40   2.0000      -0.512025       -13.9329
  41   2.0000      -0.510087       -13.8802
  42   2.0000      -0.503659       -13.7053
  43   2.0000      -0.494457       -13.4549
  44   2.0000      -0.486122       -13.2281
  45   2.0000      -0.478744       -13.0273
  46   2.0000      -0.471847       -12.8396
  47   2.0000      -0.456927       -12.4336
  48   2.0000      -0.446645       -12.1538
  49   2.0000      -0.438017       -11.9191
  50   2.0000      -0.433756       -11.8031
  51   2.0000      -0.425682       -11.5834
  52   2.0000      -0.413482       -11.2514
  53   2.0000      -0.409573       -11.1451
  54   2.0000      -0.406159       -11.0521
  55   2.0000      -0.403212       -10.9720
  56   2.0000      -0.399563       -10.8727
  57   2.0000      -0.397490       -10.8163
  58   2.0000      -0.395862       -10.7719
  59   2.0000      -0.392992       -10.6939
  60   2.0000      -0.378800       -10.3077
  61   2.0000      -0.376254       -10.2384
  62   2.0000      -0.373116       -10.1530
  63   2.0000      -0.364394        -9.9157
  64   2.0000      -0.361892        -9.8476
  65   2.0000      -0.353732        -9.6255
  66   2.0000      -0.330311        -8.9882
  67   2.0000      -0.323770        -8.8102
  68   2.0000      -0.317541        -8.6407
  69   2.0000      -0.276655        -7.5282
  70   2.0000      -0.256829        -6.9887
  71   2.0000      -0.245493        -6.6802
  72   2.0000      -0.242037        -6.5861
  73   2.0000      -0.240143        -6.5346
  74   2.0000      -0.232686        -6.3317
  75   2.0000      -0.206339        -5.6148
  76   0.0000      -0.034683        -0.9438
  77   0.0000      -0.003898        -0.1061
  78   0.0000       0.016992         0.4624
  79   0.0000       0.022954         0.6246
  80   0.0000       0.035001         0.9524

MULLIKEN ATOMIC CHARGES
-----------------------
   0 C :   -0.557772
   1 H :    0.173405
   2 H :    0.168841
   3 H :    0.191431
   4 C :    0.532749
   5 O :   -0.470858
   6 N :   -0.370770
   7 C :   -0.245760
   8 H :    0.180114
   9 H :    0.168610
  10 C :    0.524067
  11 N :   -0.355580
  12 O :   -0.483467
  13 C :   -0.327293
  14 H :    0.180560
  15 H :    0.150618
  16 H :    0.170098
  17 C :   -0.328849
  18 H :    0.169985
  19 H :    0.203445
  20 H :    0.144622
  21 C :   -0.259098
  22 H :    0.197160
  23 H :    0.168205
  24 C :    0.090480
  25 C :    0.081340
  26 C :   -0.204708
  27 C :   -0.187198
  28 C :    0.132332
  29 C :   -0.134890
  30 H :    0.170264
  31 C :   -0.138878
  32 H :    0.151200
  33 C :   -0.201062
  34 C :   -0.195398
  35 H :    0.129452
  36 C :   -0.130932
  37 H :    0.132925
  38 H :    0.126484
  39 H :    0.126187
  40 H :    0.127938
Sum of atomic charges:   -0.0000000

LOEWDIN ATOMIC CHARGES
----------------------
   0 C :   -0.392292
   1 H :    0.143493
   2 H :    0.139761
   3 H :    0.154771
   4 C :    0.106448
   5 O :   -0.279848
   6 N :   -0.082655
   7 C :   -0.179351
   8 H :    0.141444
   9 H :    0.142243
  10 C :    0.091521
  11 N :   -0.069891
  12 O :   -0.281736
  13 C :   -0.277991
  14 H :    0.139493
  15 H :    0.121565
  16 H :    0.137752
  17 C :   -0.279591
  18 H :    0.134167
  19 H :    0.157339
  20 H :    0.121104
  21 C :   -0.152465
  22 H :    0.157786
  23 H :    0.135309
  24 C :   -0.027275
  25 C :   -0.016894
  26 C :   -0.133578
  27 C :   -0.121877
  28 C :   -0.017084
  29 C :   -0.136069
  30 H :    0.150170
  31 C :   -0.129783
  32 H :    0.139626
  33 C :   -0.130335
  34 C :   -0.129922
  35 H :    0.132170
  36 C :   -0.133643
  37 H :    0.134329
  38 H :    0.130072
  39 H :    0.130125
  40 H :    0.131596

  Mayer bond orders larger than 0.100000
B(  0-C ,  1-H ) :   0.9298 B(  0-C ,  2-H ) :   0.9276 B(  0-C ,  3-H ) :   0.9384
B(  0-C ,  4-C ) :   0.9773 B(  4-C ,  5-O ) :   1.7988 B(  4-C ,  6-N ) :   1.1204
B(  6-N ,  7-C ) :   0.9513 B(  6-N , 21-C ) :   0.9298 B(  7-C ,  8-H ) :   0.9153
B(  7-C ,  9-H ) :   0.9101 B(  7-C , 10-C ) :   0.9319 B( 10-C , 11-N ) :   1.1680
B( 10-C , 12-O ) :   1.7846 B( 11-N , 12-O ) :   0.1049 B( 11-N , 13-C ) :   0.9624
B( 11-N , 17-C ) :   0.9501 B( 13-C , 14-H ) :   0.9239 B( 13-C , 15-H ) :   0.9342
B( 13-C , 16-H ) :   0.9270 B( 17-C , 18-H ) :   0.9253 B( 17-C , 19-H ) :   0.9189
B( 17-C , 20-H ) :   0.9406 B( 21-C , 22-H ) :   0.9037 B( 21-C , 23-H ) :   0.9121
B( 21-C , 24-C ) :   0.9657 B( 24-C , 25-C ) :   1.2701 B( 24-C , 26-C ) :   1.5277
B( 25-C , 27-C ) :   1.2756 B( 25-C , 28-C ) :   1.2953 B( 26-C , 29-C ) :   1.3036
B( 26-C , 30-H ) :   0.8953 B( 27-C , 31-C ) :   1.5460 B( 27-C , 32-H ) :   0.9043
B( 28-C , 33-C ) :   1.2742 B( 28-C , 34-C ) :   1.2841 B( 29-C , 34-C ) :   1.5230
B( 29-C , 35-H ) :   0.9306 B( 31-C , 36-C ) :   1.3204 B( 31-C , 37-H ) :   0.9294
B( 33-C , 36-C ) :   1.5385 B( 33-C , 38-H ) :   0.9245 B( 34-C , 39-H ) :   0.9249
B( 36-C , 40-H ) :   0.9303

Dispersion correction           -0.094330365
FINAL SINGLE POINT ENERGY      -919.344401124413

DIPOLE MOMENT
-------------
                                X             Y             Z
Electronic contribution:     -3.73338       3.90944      -7.44003
Nuclear contribution   :      3.71197      -4.29140       8.62487
                        -----------------------------------------
Total Dipole Moment    :     -0.02141      -0.38196       1.18484
                        -----------------------------------------
Magnitude (a.u.)       :      1.24507
Magnitude (Debye)      :      3.16472

Dispersion correction in the Hessian             ... Starting D4

VIBRATIONAL FREQUENCIES
-----------------------

Scaling factor for frequencies =  1.000000000  (already applied!)

   0:         0.00 cm**-1
   1:         0.00 cm**-1
   2:         0.00 cm**-1
   3:         0.00 cm**-1
   4:         0.00 cm**-1
   5:         0.00 cm**-1
   6:        35.47 cm**-1
   7:        40.90 cm**-1
   8:        59.14 cm**-1
   9:        76.12 cm**-1
  10:        96.16 cm**-1
  11:       103.54 cm**-1
  12:       115.65 cm**-1
  13:       125.53 cm**-1
  14:       137.93 cm**-1
  15:       159.06 cm**-1
  16:       168.81 cm**-1
  17:       190.03 cm**-1
  18:       199.03 cm**-1
  19:       202.20 cm**-1
  20:       249.80 cm**-1
  21:       263.19 cm**-1
  22:       277.71 cm**-1
  23:       311.72 cm**-1
  24:       326.58 cm**-1
  25:       384.76 cm**-1
  26:       405.53 cm**-1
  27:       421.10 cm**-1
  28:       435.59 cm**-1
  29:       457.56 cm**-1
  30:       479.31 cm**-1
  31:       492.56 cm**-1
  32:       503.99 cm**-1
  33:       518.34 cm**-1
  34:       556.64 cm**-1
  35:       565.39 cm**-1
  36:       589.91 cm**-1
  37:       617.68 cm**-1
  38:       624.49 cm**-1
  39:       664.50 cm**-1
  40:       699.93 cm**-1
  41:       735.17 cm**-1
  42:       747.40 cm**-1
  43:       764.64 cm**-1
  44:       796.37 cm**-1
  45:       804.45 cm**-1
  46:       815.93 cm**-1
  47:       830.74 cm**-1
  48:       876.25 cm**-1
  49:       876.67 cm**-1
  50:       928.82 cm**-1
  51:       944.83 cm**-1
  52:       954.23 cm**-1
  53:       976.98 cm**-1
  54:       984.26 cm**-1
  55:       990.26 cm**-1
  56:       994.64 cm**-1
  57:      1011.40 cm**-1
  58:      1044.21 cm**-1
  59:      1062.75 cm**-1
  60:      1064.69 cm**-1
  61:      1090.57 cm**-1
  62:      1105.34 cm**-1
  63:      1117.93 cm**-1
  64:      1139.91 cm**-1
  65:      1179.08 cm**-1
  66:      1188.50 cm**-1
  67:      1192.64 cm**-1
  68:      1199.54 cm**-1
  69:      1206.37 cm**-1
  70:      1212.18 cm**-1
  71:      1252.45 cm**-1
  72:      1276.02 cm**-1
  73:      1277.86 cm**-1
  74:      1294.58 cm**-1
  75:      1297.36 cm**-1
  76:      1323.82 cm**-1
  77:      1378.28 cm**-1
  78:      1395.80 cm**-1
  79:      1405.65 cm**-1
  80:      1410.98 cm**-1
  81:      1420.14 cm**-1
  82:      1442.61 cm**-1
  83:      1450.48 cm**-1
  84:      1455.98 cm**-1
  85:      1470.97 cm**-1
  86:      1493.70 cm**-1
  87:      1497.36 cm**-1
  88:      1502.17 cm**-1
  89:      1503.83 cm**-1
  90:      1509.36 cm**-1
  91:      1512.64 cm**-1
  92:      1513.45 cm**-1
  93:      1525.06 cm**-1
  94:      1528.28 cm**-1
  95:      1536.36 cm**-1
  96:      1568.93 cm**-1
  97:      1572.84 cm**-1
  98:      1635.69 cm**-1
  99:      1656.74 cm**-1
 100:      1683.73 cm**-1
 101:      1753.93 cm**-1
 102:      1754.96 cm**-1
 103:      3031.42 cm**-1
 104:      3041.13 cm**-1
 105:      3052.67 cm**-1
 106:      3060.07 cm**-1
 107:      3094.05 cm**-1
 108:      3097.62 cm**-1
 109:      3104.59 cm**-1
 110:      3113.38 cm**-1
 111:      3140.41 cm**-1
 112:      3154.20 cm**-1
 113:      3175.12 cm**-1
 114:      3176.41 cm**-1
 115:      3179.78 cm**-1
 116:      3193.43 cm**-1
 117:      3198.68 cm**-1
 118:      3201.80 cm**-1
 119:      3207.86 cm**-1
 120:      3209.88 cm**-1
 121:      3219.68 cm**-1
 122:      3248.63 cm**-1

IR SPECTRUM
-----------

 Mode   freq       eps      Int      T**2         TX        TY        TZ
       cm**-1   L/(mol*cm) km/mol    a.u.
----------------------------------------------------------------------------
  6:     35.47   0.000214    1.08  0.001881  (-0.032861  0.014531  0.024295)
  7:     40.90   0.000434    2.19  0.003314  (-0.018924 -0.012520  0.052905)
  8:     59.14   0.000150    0.76  0.000790  ( 0.025251  0.001726 -0.012225)
  9:     76.12   0.000206    1.04  0.000845  (-0.016028  0.009774 -0.022189)
 10:     96.16   0.001147    5.80  0.003722  ( 0.015707 -0.050637  0.030183)
 11:    103.54   0.000067    0.34  0.000203  ( 0.010081  0.004362 -0.009095)
 12:    115.65   0.000518    2.62  0.001398  ( 0.015804 -0.003304 -0.033717)
 13:    125.53   0.000724    3.66  0.001800  ( 0.029175 -0.030802 -0.000064)
 14:    137.93   0.000058    0.29  0.000131  (-0.008068 -0.006631  0.004654)
 15:    159.06   0.000301    1.52  0.000591  ( 0.018819 -0.013761  0.006919)
 16:    168.81   0.000107    0.54  0.000198  (-0.013052 -0.005083 -0.001301)
 17:    190.03   0.000072    0.37  0.000119  (-0.006319 -0.006641  0.005893)
 18:    199.03   0.000073    0.37  0.000115  (-0.005946 -0.001503 -0.008781)
 19:    202.20   0.000345    1.74  0.000533  ( 0.021829 -0.006915 -0.002873)
 20:    249.80   0.000116    0.58  0.000144  (-0.010720  0.001529 -0.005201)
 21:    263.19   0.002005   10.13  0.002378  (-0.037420  0.023391 -0.020739)
 22:    277.71   0.001236    6.24  0.001389  (-0.007437 -0.028517  0.022805)
 23:    311.72   0.000207    1.04  0.000207  ( 0.000366 -0.001360  0.014317)
 24:    326.58   0.002233   11.29  0.002134  (-0.039977  0.005449  0.022495)
 25:    384.76   0.000856    4.33  0.000695  ( 0.020724  0.008465  0.013911)
 26:    405.53   0.000406    2.05  0.000312  ( 0.008275  0.000104 -0.015611)
 27:    421.10   0.000529    2.67  0.000392  ( 0.019404 -0.002250  0.003255)
 28:    435.59   0.001259    6.36  0.000902  (-0.016244 -0.021055  0.013947)
 29:    457.56   0.000403    2.03  0.000275  (-0.015509 -0.004077  0.004177)
 30:    479.31   0.000301    1.52  0.000196  ( 0.005956 -0.009701  0.008129)
 31:    492.56   0.003293   16.64  0.002087  ( 0.041163 -0.018199  0.007805)
 32:    503.99   0.001356    6.85  0.000840  ( 0.006817 -0.020625  0.019180)
 33:    518.34   0.000306    1.55  0.000184  (-0.010587  0.006603 -0.005344)
 34:    556.64   0.000542    2.74  0.000304  ( 0.007723 -0.003475 -0.015228)
 35:    565.39   0.002219   11.21  0.001224  (-0.019910 -0.027267 -0.009198)
 36:    589.91   0.000607    3.07  0.000321  (-0.008966 -0.003601  0.015097)
 37:    617.68   0.000243    1.23  0.000123  (-0.009889  0.003891  0.003171)
 38:    624.49   0.002730   13.80  0.001364  (-0.031037  0.001477  0.019972)
 39:    664.50   0.000892    4.51  0.000419  (-0.010489 -0.005296  0.016759)
 40:    699.93   0.001818    9.19  0.000810  ( 0.023549 -0.002315  0.015827)
 41:    735.17   0.000844    4.26  0.000358  ( 0.011238 -0.014012  0.005957)
 42:    747.40   0.001234    6.24  0.000515  (-0.004020  0.008093 -0.020824)
 43:    764.64   0.001037    5.24  0.000423  (-0.006940 -0.004682  0.018789)
 44:    796.37   0.002409   12.17  0.000944  (-0.006957  0.022263 -0.019997)
 45:    804.45   0.000123    0.62  0.000048  ( 0.000345 -0.006079  0.003267)
 46:    815.93   0.013799   69.74  0.005278  ( 0.017976 -0.038378  0.059006)
 47:    830.74   0.001734    8.76  0.000651  (-0.009741 -0.000899  0.023574)
 48:    876.25   0.000458    2.31  0.000163  (-0.006095  0.011163 -0.001150)
 49:    876.67   0.000382    1.93  0.000136  (-0.010264  0.004666  0.002994)
 50:    928.82   0.000952    4.81  0.000320  (-0.014829 -0.004078 -0.009127)
 51:    944.83   0.000263    1.33  0.000087  ( 0.001784  0.007600 -0.005099)
 52:    954.23   0.000362    1.83  0.000118  ( 0.003931  0.002562  0.009815)
 53:    976.98   0.001377    6.96  0.000440  ( 0.019698 -0.007197  0.000125)
 54:    984.26   0.000230    1.16  0.000073  (-0.007931 -0.000603 -0.003104)
 55:    990.26   0.003527   17.82  0.001111  (-0.029120 -0.016204 -0.000934)
 56:    994.64   0.000325    1.64  0.000102  (-0.003194  0.008754 -0.003895)
 57:   1011.40   0.007579   38.30  0.002338  ( 0.035970  0.003122 -0.032170)
 58:   1044.21   0.002480   12.53  0.000741  (-0.009541 -0.025058 -0.004725)
 59:   1062.75   0.000920    4.65  0.000270  (-0.008230  0.002215  0.014056)
 60:   1064.69   0.000214    1.08  0.000063  (-0.007467  0.002628  0.000021)
 61:   1090.57   0.000741    3.74  0.000212  (-0.012429 -0.007270 -0.002146)
 62:   1105.34   0.000864    4.37  0.000244  (-0.000148  0.010690  0.011387)
 63:   1117.93   0.000449    2.27  0.000125  ( 0.000138  0.009459 -0.005977)
 64:   1139.91   0.000058    0.29  0.000016  (-0.001148  0.000410  0.003794)
 65:   1179.08   0.000273    1.38  0.000072  ( 0.003314  0.001500 -0.007677)
 66:   1188.50   0.000720    3.64  0.000189  ( 0.001239  0.005128  0.012698)
 67:   1192.64   0.005153   26.04  0.001348  (-0.005602  0.000818  0.036281)
 68:   1199.54   0.000009    0.05  0.000002  (-0.001110 -0.001000 -0.000461)
 69:   1206.37   0.000400    2.02  0.000104  (-0.008086  0.005598  0.002606)
 70:   1212.18   0.005378   27.18  0.001384  (-0.020177  0.027774  0.014351)
 71:   1252.45   0.000489    2.47  0.000122  (-0.006513 -0.006807 -0.005762)
 72:   1276.02   0.016918   85.50  0.004137  ( 0.059178  0.024974  0.003420)
 73:   1277.86   0.002452   12.39  0.000599  ( 0.008565 -0.022808 -0.002307)
 74:   1294.58   0.014205   71.79  0.003424  ( 0.054238  0.016737 -0.014220)
 75:   1297.36   0.002932   14.82  0.000705  ( 0.024852 -0.009127 -0.002096)
 76:   1323.82   0.012520   63.27  0.002951  ( 0.053303 -0.001645  0.010369)
 77:   1378.28   0.003818   19.29  0.000864  ( 0.027943 -0.006976 -0.005908)
 78:   1395.80   0.001312    6.63  0.000293  ( 0.007017  0.007912  0.013471)
 79:   1405.65   0.003086   15.60  0.000685  (-0.018413 -0.018196  0.003874)
 80:   1410.98   0.002532   12.80  0.000560  (-0.016392 -0.013097  0.010946)
 81:   1420.14   0.005008   25.31  0.001100  (-0.032032 -0.001695 -0.008455)
 82:   1442.61   0.000339    1.72  0.000073  (-0.006434  0.005414  0.001645)
 83:   1450.48   0.013661   69.04  0.002939  (-0.045280  0.000410  0.029811)
 84:   1455.98   0.017758   89.74  0.003806  ( 0.058585  0.016265 -0.010459)
 85:   1470.97   0.011867   59.97  0.002518  ( 0.030667  0.025906  0.030099)
 86:   1493.70   0.000779    3.93  0.000163  (-0.009134 -0.002064  0.008658)
 87:   1497.36   0.001072    5.42  0.000223  ( 0.008315  0.007336 -0.010026)
 88:   1502.17   0.000913    4.61  0.000190  ( 0.011223  0.007974  0.000259)
 89:   1503.83   0.001425    7.20  0.000296  (-0.013453  0.010617  0.001427)
 90:   1509.36   0.004868   24.60  0.001006  ( 0.021965 -0.010426  0.020377)
 91:   1512.64   0.000836    4.22  0.000172  (-0.008971  0.002353  0.009298)
 92:   1513.45   0.002087   10.55  0.000430  (-0.008509 -0.003983 -0.018496)
 93:   1525.06   0.001646    8.32  0.000337  (-0.000060 -0.017246  0.006270)
 94:   1528.28   0.003090   15.62  0.000631  ( 0.013519 -0.018069  0.011032)
 95:   1536.36   0.000840    4.25  0.000171  ( 0.000749 -0.012209 -0.004584)
 96:   1568.93   0.005971   30.18  0.001188  (-0.018228 -0.001993  0.029180)
 97:   1572.84   0.001329    6.71  0.000264  ( 0.006041  0.011709  0.009487)
 98:   1635.69   0.000294    1.48  0.000056  (-0.006513  0.003654 -0.000473)
 99:   1656.74   0.001965    9.93  0.000370  (-0.010125  0.015026  0.006463)
100:   1683.73   0.000117    0.59  0.000022  (-0.001066  0.002548 -0.003739)
101:   1753.93   0.060969  308.11  0.010848  (-0.036695 -0.096652 -0.012640)
102:   1754.96   0.032440  163.94  0.005768  ( 0.003545 -0.004083 -0.075758)
103:   3031.42   0.006587   33.29  0.000678  (-0.012443 -0.005084 -0.022303)
104:   3041.13   0.014051   71.01  0.001442  ( 0.011628  0.009467 -0.034885)
105:   3052.67   0.000872    4.41  0.000089  ( 0.001582 -0.006431  0.006729)
106:   3060.07   0.004996   25.25  0.000509  (-0.009713  0.019797  0.004813)
107:   3094.05   0.004660   23.55  0.000470  ( 0.010165 -0.017745  0.007195)
108:   3097.62   0.002684   13.57  0.000270  ( 0.006226 -0.013393  0.007232)
109:   3104.59   0.002316   11.70  0.000233  ( 0.006028  0.003009  0.013688)
110:   3113.38   0.002453   12.40  0.000246  (-0.008168  0.003970  0.012784)
111:   3140.41   0.001946    9.83  0.000193  ( 0.006487 -0.003636  0.011749)
112:   3154.20   0.000795    4.02  0.000079  ( 0.001919 -0.007221 -0.004773)
113:   3175.12   0.001417    7.16  0.000139  (-0.008413 -0.008236  0.000805)
114:   3176.41   0.000229    1.16  0.000022  (-0.001096 -0.004003 -0.002291)
115:   3179.78   0.001282    6.48  0.000126  (-0.009731  0.002740  0.004858)
116:   3193.43   0.002770   14.00  0.000271  (-0.012099  0.006559  0.009015)
117:   3198.68   0.006142   31.04  0.000599  (-0.002558  0.019633  0.014396)
118:   3201.80   0.000142    0.72  0.000014  (-0.003684 -0.000327 -0.000455)
119:   3207.86   0.005858   29.60  0.000570  ( 0.022222  0.008218  0.002917)
120:   3209.88   0.001239    6.26  0.000121  (-0.009810 -0.004199  0.002574)
121:   3219.68   0.000832    4.21  0.000081  (-0.004470  0.007180  0.003020)
122:   3248.63   0.001316    6.65  0.000126  (-0.004415  0.006433  0.008095)

--------------------------
THERMOCHEMISTRY AT 298.15K
--------------------------

Temperature         ... 298.15 K
Pressure            ... 1.00 atm
Total Mass          ... 284.36 AMU

Throughout the following assumptions are being made:
  (1) The electronic state is orbitally nondegenerate
  (2) There are no thermally accessible electronically excited states
  (3) Hindered rotations indicated by low frequency modes are not
      treated as such but are treated as vibrations and this may
      cause some error
  (4) All equations used are the standard statistical mechanics
      equations for an ideal gas
  (5) All vibrations are strictly harmonic

freq.      35.47  E(vib)   ...       0.54
freq.      40.90  E(vib)   ...       0.54
freq.      59.14  E(vib)   ...       0.51
freq.      76.12  E(vib)   ...       0.49
freq.      96.16  E(vib)   ...       0.47
freq.     103.54  E(vib)   ...       0.46
freq.     115.65  E(vib)   ...       0.44
freq.     125.53  E(vib)   ...       0.43
freq.     137.93  E(vib)   ...       0.42
freq.     159.06  E(vib)   ...       0.39
freq.     168.81  E(vib)   ...       0.38
freq.     190.03  E(vib)   ...       0.36
freq.     199.03  E(vib)   ...       0.35
freq.     202.20  E(vib)   ...       0.35
freq.     249.80  E(vib)   ...       0.31
freq.     263.19  E(vib)   ...       0.29
freq.     277.71  E(vib)   ...       0.28
freq.     311.72  E(vib)   ...       0.25
freq.     326.58  E(vib)   ...       0.24
freq.     384.76  E(vib)   ...       0.20
freq.     405.53  E(vib)   ...       0.19
freq.     421.10  E(vib)   ...       0.18
freq.     435.59  E(vib)   ...       0.17
freq.     457.56  E(vib)   ...       0.16
freq.     479.31  E(vib)   ...       0.15
freq.     492.56  E(vib)   ...       0.14
freq.     503.99  E(vib)   ...       0.14
freq.     518.34  E(vib)   ...       0.13
freq.     556.64  E(vib)   ...       0.12
freq.     565.39  E(vib)   ...       0.11
freq.     589.91  E(vib)   ...       0.10
freq.     617.68  E(vib)   ...       0.09
freq.     624.49  E(vib)   ...       0.09
freq.     664.50  E(vib)   ...       0.08
freq.     699.93  E(vib)   ...       0.07
freq.     735.17  E(vib)   ...       0.06
freq.     747.40  E(vib)   ...       0.06
freq.     764.64  E(vib)   ...       0.06
freq.     796.37  E(vib)   ...       0.05
freq.     804.45  E(vib)   ...       0.05
freq.     815.93  E(vib)   ...       0.05
freq.     830.74  E(vib)   ...       0.04
freq.     876.25  E(vib)   ...       0.04
freq.     876.67  E(vib)   ...       0.04
freq.     928.82  E(vib)   ...       0.03
freq.     944.83  E(vib)   ...       0.03
freq.     954.23  E(vib)   ...       0.03
freq.     976.98  E(vib)   ...       0.03
freq.     984.26  E(vib)   ...       0.02
freq.     990.26  E(vib)   ...       0.02
freq.     994.64  E(vib)   ...       0.02
freq.    1011.40  E(vib)   ...       0.02
freq.    1044.21  E(vib)   ...       0.02
freq.    1062.75  E(vib)   ...       0.02
freq.    1064.69  E(vib)   ...       0.02
freq.    1090.57  E(vib)   ...       0.02
freq.    1105.34  E(vib)   ...       0.02
freq.    1117.93  E(vib)   ...       0.01
freq.    1139.91  E(vib)   ...       0.01
freq.    1179.08  E(vib)   ...       0.01
freq.    1188.50  E(vib)   ...       0.01
freq.    1192.64  E(vib)   ...       0.01
freq.    1199.54  E(vib)   ...       0.01
freq.    1206.37  E(vib)   ...       0.01
freq.    1212.18  E(vib)   ...       0.01
freq.    1252.45  E(vib)   ...       0.01
freq.    1276.02  E(vib)   ...       0.01
freq.    1277.86  E(vib)   ...       0.01
freq.    1294.58  E(vib)   ...       0.01
freq.    1297.36  E(vib)   ...       0.01
freq.    1323.82  E(vib)   ...       0.01
freq.    1378.28  E(vib)   ...       0.01
freq.    1395.80  E(vib)   ...       0.00
freq.    1405.65  E(vib)   ...       0.00
freq.    1410.98  E(vib)   ...       0.00
freq.    1420.14  E(vib)   ...       0.00
freq.    1442.61  E(vib)   ...       0.00
freq.    1450.48  E(vib)   ...       0.00
freq.    1455.98  E(vib)   ...       0.00
freq.    1470.97  E(vib)   ...       0.00
freq.    1493.70  E(vib)   ...       0.00
freq.    1497.36  E(vib)   ...       0.00
freq.    1502.17  E(vib)   ...       0.00
freq.    1503.83  E(vib)   ...       0.00
freq.    1509.36  E(vib)   ...       0.00
freq.    1512.64  E(vib)   ...       0.00
freq.    1513.45  E(vib)   ...       0.00
freq.    1525.06  E(vib)   ...       0.00
freq.    1528.28  E(vib)   ...       0.00
freq.    1536.36  E(vib)   ...       0.00
freq.    1568.93  E(vib)   ...       0.00
freq.    1572.84  E(vib)   ...       0.00
freq.    1635.69  E(vib)   ...       0.00
freq.    1656.74  E(vib)   ...       0.00
freq.    1683.73  E(vib)   ...       0.00
freq.    1753.93  E(vib)   ...       0.00
freq.    1754.96  E(vib)   ...       0.00
freq.    3031.42  E(vib)   ...       0.00
freq.    3041.13  E(vib)   ...       0.00
freq.    3052.67  E(vib)   ...       0.00
freq.    3060.07  E(vib)   ...       0.00
freq.    3094.05  E(vib)   ...       0.00
freq.    3097.62  E(vib)   ...       0.00
freq.    3104.59  E(vib)   ...       0.00
freq.    3113.38  E(vib)   ...       0.00
freq.    3140.41  E(vib)   ...       0.00
freq.    3154.20  E(vib)   ...       0.00
freq.    3175.12  E(vib)   ...       0.00
freq.    3176.41  E(vib)   ...       0.00
freq.    3179.78  E(vib)   ...       0.00
freq.    3193.43  E(vib)   ...       0.00
freq.    3198.68  E(vib)   ...       0.00
freq.    3201.80  E(vib)   ...       0.00
freq.    3207.86  E(vib)   ...       0.00
freq.    3209.88  E(vib)   ...       0.00
freq.    3219.68  E(vib)   ...       0.00
freq.    3248.63  E(vib)   ...       0.00

------------
INNER ENERGY
------------

The inner energy is: U= E(el) + E(ZPE) + E(vib) + E(rot) + E(trans)
    E(el)   - is the total energy from the electronic structure calculation
              = E(kin-el) + E(nuc-el) + E(el-el) + E(nuc-nuc)
    E(ZPE)  - the the zero temperature vibrational energy from the frequency calculation
    E(vib)  - the the finite temperature correction to E(ZPE) due to population
              of excited vibrational states
    E(rot)  - is the rotational thermal energy
    E(trans)- is the translational thermal energy

Summary of contributions to the inner energy U:
Electronic energy                ...   -919.34440112 Eh
Zero point energy                ...      0.34535985 Eh     216.72 kcal/mol
Thermal vibrational correction   ...      0.01691164 Eh      10.61 kcal/mol
Thermal rotational correction    ...      0.00141627 Eh       0.89 kcal/mol
Thermal translational correction ...      0.00141627 Eh       0.89 kcal/mol
-----------------------------------------------------------------------
Total thermal energy                   -918.97929709 Eh

Summary of corrections to the electronic energy:
(perhaps to be used in another calculation)
Total thermal correction                  0.01974419 Eh      12.39 kcal/mol

Rotational constants in cm-1:     0.016807     0.009173     0.007573

                             ****ORCA TERMINATED NORMALLY****
TOTAL RUN TIME: 0 days 0 hours 55 minutes 44 seconds 42 msec
