                         Program Version 5.0.4 -  RELEASE  -
|  1> ! OPT FREQ B3LYP 6-31G(d) D4 AUTOAUX
|  2>
|  3> %PAL NPROCS 4 END
|  4>
|  5> %maxcore 3375
|  6>
|  7> *xyzfile 0 1 /users/fjb15167/WWenergy/structures/Nwe.xyz
|  8>
|  9>                          ****END OF INPUT****
 Total Charge           Charge          ....    0
 Multiplicity           Mult            ....    1
 Number of Electrons    NEL             ....  154
Dispersion correction           -0.084192995
FINAL SINGLE POINT ENERGY      -936.576475921147
Dispersion correction            ... Starting D4
Dispersion correction           -0.083477701
FINAL SINGLE POINT ENERGY      -936.577049693035
Dispersion correction            ... Starting D4
Dispersion correction           -0.083776883
FINAL SINGLE POINT ENERGY      -936.577167031859
Dispersion correction            ... Starting D4
FINAL SINGLE POINT ENERGY      -936.577239347352
FINAL SINGLE POINT ENERGY      -936.577263797869
FINAL SINGLE POINT ENERGY      -936.577289190983
FINAL SINGLE POINT ENERGY      -936.577305270318
FINAL SINGLE POINT ENERGY      -936.577320908613
FINAL SINGLE POINT ENERGY      -936.577333920001
FINAL SINGLE POINT ENERGY      -936.577346259070
FINAL SINGLE POINT ENERGY      -936.577356322823
FINAL SINGLE POINT ENERGY      -936.577364482788
Dispersion correction           -0.083576062
FINAL SINGLE POINT ENERGY      -936.577371345518
Dispersion correction            ... Starting D4
Dispersion correction           -0.083563034
FINAL SINGLE POINT ENERGY      -936.577375121436
Dispersion correction            ... Starting D4
                    ***********************HURRAY********************

CARTESIAN COORDINATES (ANGSTROEM)
---------------------------------
  C     -1.414204   -0.437981    0.141407
  C     -1.565911   -1.716718   -0.336406
  C     -2.734654    0.125849    0.237812
  H     -0.802850   -2.448613   -0.566953
  N     -2.907330   -1.985160   -0.533312
  C     -3.650972   -0.874669   -0.190796
  C     -3.234272    1.373679    0.645229
  H     -3.281142   -2.855262   -0.877761
  C     -5.031809   -0.658907   -0.217647
  C     -4.605422    1.593404    0.619069
  H     -2.556253    2.157097    0.976347
  H     -5.718513   -1.434525   -0.547373
  C     -5.495452    0.586428    0.191191
  H     -5.002864    2.555172    0.932158
  H     -6.563320    0.787272    0.181208
  C     -0.106238    0.236402    0.418412
  H     -0.227237    1.012582    1.184398
  H      0.603155   -0.489078    0.826275
  C      0.501124    0.853897   -0.864083
  H      0.351365    0.150607   -1.687030
  H     -0.027188    1.774310   -1.129256
  N      1.941025    1.104406   -0.776220
  C      2.810004    0.039806   -1.275845
  H      2.591110   -0.138146   -2.333618
  H      3.839707    0.381197   -1.177212
  C      2.506156    2.234268   -0.241798
  C      2.536965   -1.302600   -0.581037
  N      3.078694   -1.516186    0.654838
  C      1.559310    3.349698    0.173495
  H      1.013538    3.749321   -0.689327
  H      0.819150    3.013030    0.906718
  H      2.161691    4.146323    0.611822
  C      2.777125   -2.763535    1.342237
  H      2.112387   -2.585347    2.199562
  H      2.288285   -3.439132    0.641711
  H      3.703940   -3.217023    1.714500
  C      3.831060   -0.543728    1.434789
  H      3.265814   -0.264053    2.335453
  H      4.782058   -0.986244    1.758893
  H      4.041250    0.365712    0.873539
  O      3.724629    2.357109   -0.111148
  O      1.814092   -2.130664   -1.140241

 Multiplicity           Mult            ....    1
 Number of Electrons    NEL             ....  154
 Basis Dimension        Dim             ....  336

ORBITAL ENERGIES
----------------

  NO   OCC          E(Eh)            E(eV)
   0   2.0000     -19.106503      -519.9144
   1   2.0000     -19.105212      -519.8793
   2   2.0000     -14.365362      -390.9014
   3   2.0000     -14.362154      -390.8141
   4   2.0000     -14.359610      -390.7448
   5   2.0000     -10.281307      -279.7686
   6   2.0000     -10.279568      -279.7213
   7   2.0000     -10.213113      -277.9129
   8   2.0000     -10.213076      -277.9119
   9   2.0000     -10.205986      -277.7190
  10   2.0000     -10.204790      -277.6864
  11   2.0000     -10.204222      -277.6710
  12   2.0000     -10.200282      -277.5638
  13   2.0000     -10.180960      -277.0380
  14   2.0000     -10.180456      -277.0243
  15   2.0000     -10.174855      -276.8719
  16   2.0000     -10.170956      -276.7658
  17   2.0000     -10.169669      -276.7308
  18   2.0000     -10.168813      -276.7075
  19   2.0000     -10.166110      -276.6339
  20   2.0000     -10.165773      -276.6247
  21   2.0000      -1.032458       -28.0946
  22   2.0000      -1.025451       -27.9039
  23   2.0000      -0.969360       -26.3776
  24   2.0000      -0.934010       -25.4157
  25   2.0000      -0.929666       -25.2975
  26   2.0000      -0.828901       -22.5555
  27   2.0000      -0.798098       -21.7173
  28   2.0000      -0.762068       -20.7369
  29   2.0000      -0.744794       -20.2669
  30   2.0000      -0.725612       -19.7449
  31   2.0000      -0.723303       -19.6821
  32   2.0000      -0.711462       -19.3599
  33   2.0000      -0.703082       -19.1318
  34   2.0000      -0.674563       -18.3558
  35   2.0000      -0.649090       -17.6626
  36   2.0000      -0.612285       -16.6611
  37   2.0000      -0.583096       -15.8668
  38   2.0000      -0.556524       -15.1438
  39   2.0000      -0.549230       -14.9453
  40   2.0000      -0.538664       -14.6578
  41   2.0000      -0.529554       -14.4099
  42   2.0000      -0.513828       -13.9820
  43   2.0000      -0.486238       -13.2312
  44   2.0000      -0.482721       -13.1355
  45   2.0000      -0.473775       -12.8921
  46   2.0000      -0.467820       -12.7300
  47   2.0000      -0.462083       -12.5739
  48   2.0000      -0.456717       -12.4279
  49   2.0000      -0.450824       -12.2675
  50   2.0000      -0.438515       -11.9326
  51   2.0000      -0.421978       -11.4826
  52   2.0000      -0.417863       -11.3706
  53   2.0000      -0.416947       -11.3457
  54   2.0000      -0.412060       -11.2127
  55   2.0000      -0.406316       -11.0564
  56   2.0000      -0.401583       -10.9276
  57   2.0000      -0.400010       -10.8848
  58   2.0000      -0.398776       -10.8512
  59   2.0000      -0.394470       -10.7341
  60   2.0000      -0.383546       -10.4368
  61   2.0000      -0.381959       -10.3936
  62   2.0000      -0.376764       -10.2523
  63   2.0000      -0.374376       -10.1873
  64   2.0000      -0.361626        -9.8404
  65   2.0000      -0.353306        -9.6139
  66   2.0000      -0.348423        -9.4811
  67   2.0000      -0.337058        -9.1718
  68   2.0000      -0.324273        -8.8239
  69   2.0000      -0.322863        -8.7855
  70   2.0000      -0.266976        -7.2648
  71   2.0000      -0.256031        -6.9670
  72   2.0000      -0.247425        -6.7328
  73   2.0000      -0.239568        -6.5190
  74   2.0000      -0.233588        -6.3562
  75   2.0000      -0.213066        -5.7978
  76   2.0000      -0.191683        -5.2160
  77   0.0000      -0.001547        -0.0421
  78   0.0000       0.014890         0.4052
  79   0.0000       0.029468         0.8019
  80   0.0000       0.035541         0.9671
  81   0.0000       0.063148         1.7184

MULLIKEN ATOMIC CHARGES
-----------------------
   0 C :    0.047066
   1 C :   -0.015855
   2 C :    0.081090
   3 H :    0.179846
   4 N :   -0.644950
   5 C :    0.288269
   6 C :   -0.206760
   7 H :    0.326182
   8 C :   -0.165338
   9 C :   -0.139993
  10 H :    0.112800
  11 H :    0.119049
  12 C :   -0.149853
  13 H :    0.116728
  14 H :    0.119737
  15 C :   -0.359267
  16 H :    0.141704
  17 H :    0.165261
  18 C :   -0.156714
  19 H :    0.179501
  20 H :    0.157086
  21 N :   -0.373669
  22 C :   -0.242910
  23 H :    0.174110
  24 H :    0.199685
  25 C :    0.523765
  26 C :    0.517152
  27 N :   -0.363717
  28 C :   -0.551678
  29 H :    0.175330
  30 H :    0.170782
  31 H :    0.187126
  32 C :   -0.322612
  33 H :    0.153306
  34 H :    0.198457
  35 H :    0.153877
  36 C :   -0.350833
  37 H :    0.152728
  38 H :    0.155021
  39 H :    0.218984
  40 O :   -0.480198
  41 O :   -0.490297
Sum of atomic charges:    0.0000000

LOEWDIN ATOMIC CHARGES
----------------------
   0 C :   -0.081888
   1 C :   -0.102176
   2 C :   -0.040465
   3 H :    0.148766
   4 N :   -0.135926
   5 C :    0.014984
   6 C :   -0.138196
   7 H :    0.257823
   8 C :   -0.158211
   9 C :   -0.150158
  10 H :    0.124298
  11 H :    0.128158
  12 C :   -0.139705
  13 H :    0.126778
  14 H :    0.128216
  15 C :   -0.235068
  16 H :    0.123342
  17 H :    0.138234
  18 C :   -0.158141
  19 H :    0.143044
  20 H :    0.131270
  21 N :   -0.076861
  22 C :   -0.177577
  23 H :    0.141684
  24 H :    0.156896
  25 C :    0.108561
  26 C :    0.094746
  27 N :   -0.078624
  28 C :   -0.389324
  29 H :    0.145845
  30 H :    0.141472
  31 H :    0.152556
  32 C :   -0.279036
  33 H :    0.123108
  34 H :    0.153772
  35 H :    0.126526
  36 C :   -0.287857
  37 H :    0.123647
  38 H :    0.126028
  39 H :    0.158452
  40 O :   -0.291555
  41 O :   -0.297437

  Mayer bond orders larger than 0.100000
B(  0-C ,  1-C ) :   1.5720 B(  0-C ,  2-C ) :   1.2686 B(  0-C , 15-C ) :   0.9952
B(  1-C ,  3-H ) :   0.9075 B(  1-C ,  4-N ) :   1.0727 B(  2-C ,  5-C ) :   1.2862
B(  2-C ,  6-C ) :   1.3556 B(  4-N ,  5-C ) :   1.0061 B(  4-N ,  7-H ) :   0.8423
B(  5-C ,  8-C ) :   1.3598 B(  6-C ,  9-C ) :   1.4798 B(  6-C , 10-H ) :   0.9243
B(  8-C , 11-H ) :   0.9245 B(  8-C , 12-C ) :   1.4807 B(  9-C , 12-C ) :   1.3828
B(  9-C , 13-H ) :   0.9324 B( 12-C , 14-H ) :   0.9314 B( 15-C , 16-H ) :   0.9254
B( 15-C , 17-H ) :   0.9241 B( 15-C , 18-C ) :   0.9680 B( 18-C , 19-H ) :   0.9219
B( 18-C , 20-H ) :   0.9275 B( 18-C , 21-N ) :   0.9272 B( 21-N , 22-C ) :   0.9599
B( 21-N , 25-C ) :   1.1387 B( 22-C , 23-H ) :   0.9190 B( 22-C , 24-H ) :   0.8957
B( 22-C , 26-C ) :   0.9299 B( 25-C , 28-C ) :   0.9803 B( 25-C , 40-O ) :   1.7859
B( 26-C , 27-N ) :   1.1616 B( 26-C , 41-O ) :   1.7652 B( 27-N , 32-C ) :   0.9554
B( 27-N , 36-C ) :   0.9536 B( 28-C , 29-H ) :   0.9294 B( 28-C , 30-H ) :   0.9258
B( 28-C , 31-H ) :   0.9405 B( 32-C , 33-H ) :   0.9379 B( 32-C , 34-H ) :   0.9206
B( 32-C , 35-H ) :   0.9410 B( 36-C , 37-H ) :   0.9361 B( 36-C , 38-H ) :   0.9372
B( 36-C , 39-H ) :   0.8884

Dispersion correction           -0.083563159
FINAL SINGLE POINT ENERGY      -936.577375993898

DIPOLE MOMENT
-------------
                                X             Y             Z
Electronic contribution:     -8.20095      -2.85712      -5.69527
Nuclear contribution   :      7.73663       2.26112       6.07902
                        -----------------------------------------
Total Dipole Moment    :     -0.46432      -0.59600       0.38375
                        -----------------------------------------
Magnitude (a.u.)       :      0.84739
Magnitude (Debye)      :      2.15390

Dispersion correction in the Hessian             ... Starting D4

VIBRATIONAL FREQUENCIES
-----------------------

Scaling factor for frequencies =  1.000000000  (already applied!)

   0:         0.00 cm**-1
   1:         0.00 cm**-1
   2:         0.00 cm**-1
   3:         0.00 cm**-1
   4:         0.00 cm**-1
   5:         0.00 cm**-1
   6:        17.26 cm**-1
   7:        25.27 cm**-1
   8:        31.55 cm**-1
   9:        52.16 cm**-1
  10:        74.34 cm**-1
  11:        78.56 cm**-1
  12:        99.54 cm**-1
  13:       110.09 cm**-1
  14:       120.48 cm**-1
  15:       129.12 cm**-1
  16:       152.00 cm**-1
  17:       165.68 cm**-1
  18:       185.43 cm**-1
  19:       217.93 cm**-1
  20:       228.19 cm**-1
  21:       244.96 cm**-1
  22:       254.84 cm**-1
  23:       282.95 cm**-1
  24:       336.21 cm**-1
  25:       354.15 cm**-1
  26:       372.68 cm**-1
  27:       383.39 cm**-1
  28:       425.63 cm**-1
  29:       432.79 cm**-1
  30:       434.46 cm**-1
  31:       462.82 cm**-1
  32:       473.32 cm**-1
  33:       484.70 cm**-1
  34:       552.48 cm**-1
  35:       576.25 cm**-1
  36:       588.05 cm**-1
  37:       589.86 cm**-1
  38:       597.41 cm**-1
  39:       626.66 cm**-1
  40:       653.99 cm**-1
  41:       698.22 cm**-1
  42:       743.70 cm**-1
  43:       753.31 cm**-1
  44:       760.31 cm**-1
  45:       775.90 cm**-1
  46:       785.19 cm**-1
  47:       805.00 cm**-1
  48:       829.64 cm**-1
  49:       851.33 cm**-1
  50:       858.03 cm**-1
  51:       890.99 cm**-1
  52:       918.10 cm**-1
  53:       960.91 cm**-1
  54:       962.90 cm**-1
  55:      1002.30 cm**-1
  56:      1010.94 cm**-1
  57:      1024.28 cm**-1
  58:      1026.70 cm**-1
  59:      1043.72 cm**-1
  60:      1064.26 cm**-1
  61:      1078.86 cm**-1
  62:      1095.41 cm**-1
  63:      1108.36 cm**-1
  64:      1118.97 cm**-1
  65:      1141.22 cm**-1
  66:      1158.51 cm**-1
  67:      1168.54 cm**-1
  68:      1186.94 cm**-1
  69:      1190.03 cm**-1
  70:      1221.08 cm**-1
  71:      1250.99 cm**-1
  72:      1261.37 cm**-1
  73:      1284.10 cm**-1
  74:      1289.37 cm**-1
  75:      1299.56 cm**-1
  76:      1326.35 cm**-1
  77:      1337.77 cm**-1
  78:      1348.48 cm**-1
  79:      1375.87 cm**-1
  80:      1389.48 cm**-1
  81:      1402.81 cm**-1
  82:      1411.33 cm**-1
  83:      1419.63 cm**-1
  84:      1448.48 cm**-1
  85:      1461.55 cm**-1
  86:      1472.22 cm**-1
  87:      1474.71 cm**-1
  88:      1495.28 cm**-1
  89:      1500.91 cm**-1
  90:      1501.26 cm**-1
  91:      1515.19 cm**-1
  92:      1518.56 cm**-1
  93:      1520.80 cm**-1
  94:      1525.62 cm**-1
  95:      1535.16 cm**-1
  96:      1539.31 cm**-1
  97:      1542.25 cm**-1
  98:      1544.61 cm**-1
  99:      1570.09 cm**-1
 100:      1604.13 cm**-1
 101:      1635.50 cm**-1
 102:      1681.75 cm**-1
 103:      1739.51 cm**-1
 104:      1745.59 cm**-1
 105:      3022.55 cm**-1
 106:      3030.57 cm**-1
 107:      3055.19 cm**-1
 108:      3061.81 cm**-1
 109:      3072.06 cm**-1
 110:      3081.81 cm**-1
 111:      3083.92 cm**-1
 112:      3086.22 cm**-1
 113:      3112.95 cm**-1
 114:      3124.16 cm**-1
 115:      3138.01 cm**-1
 116:      3170.08 cm**-1
 117:      3175.67 cm**-1
 118:      3175.92 cm**-1
 119:      3183.36 cm**-1
 120:      3187.77 cm**-1
 121:      3190.92 cm**-1
 122:      3194.33 cm**-1
 123:      3207.64 cm**-1
 124:      3270.28 cm**-1
 125:      3670.58 cm**-1

IR SPECTRUM
-----------

 Mode   freq       eps      Int      T**2         TX        TY        TZ
       cm**-1   L/(mol*cm) km/mol    a.u.
----------------------------------------------------------------------------
  6:     17.26   0.000045    0.23  0.000811  (-0.013769 -0.024240  0.005786)
  7:     25.27   0.000289    1.46  0.003568  (-0.056824  0.008150 -0.016516)
  8:     31.55   0.000743    3.76  0.007351  ( 0.072254  0.001276 -0.046139)
  9:     52.16   0.000288    1.46  0.001723  ( 0.020181 -0.031184 -0.018527)
 10:     74.34   0.000008    0.04  0.000034  (-0.003630  0.003389 -0.003026)
 11:     78.56   0.000529    2.67  0.002102  ( 0.031488 -0.024126 -0.022979)
 12:     99.54   0.000514    2.60  0.001612  (-0.031726  0.016177  0.018542)
 13:    110.09   0.000144    0.73  0.000408  (-0.002664 -0.000546  0.020022)
 14:    120.48   0.001488    7.52  0.003854  ( 0.005742 -0.048458  0.038378)
 15:    129.12   0.000962    4.86  0.002325  ( 0.018841 -0.036104  0.025813)
 16:    152.00   0.000438    2.21  0.000899  ( 0.010834 -0.027816  0.002872)
 17:    165.68   0.000165    0.83  0.000311  (-0.002070  0.012033  0.012732)
 18:    185.43   0.000241    1.22  0.000405  (-0.005955 -0.006202  0.018197)
 19:    217.93   0.000462    2.33  0.000662  ( 0.011734 -0.019384  0.012171)
 20:    228.19   0.001389    7.02  0.001899  ( 0.015484  0.007238 -0.040090)
 21:    244.96   0.000096    0.48  0.000122  (-0.007708  0.000043  0.007920)
 22:    254.84   0.000544    2.75  0.000666  ( 0.011151 -0.017728 -0.015089)
 23:    282.95   0.001732    8.75  0.001910  ( 0.034128 -0.027268 -0.001414)
 24:    336.21   0.004704   23.77  0.004366  ( 0.001166 -0.027773  0.059943)
 25:    354.15   0.001009    5.10  0.000889  ( 0.015857  0.018016 -0.017703)
 26:    372.68   0.002317   11.71  0.001940  (-0.000457  0.004160 -0.043850)
 27:    383.39   0.000740    3.74  0.000603  (-0.004762  0.015935 -0.018056)
 28:    425.63   0.009802   49.54  0.007187  (-0.006063 -0.032577  0.078030)
 29:    432.79   0.003447   17.42  0.002485  ( 0.007569  0.017829 -0.045935)
 30:    434.46   0.000004    0.02  0.000003  (-0.000600 -0.001596  0.000093)
 31:    462.82   0.003323   16.79  0.002241  ( 0.046717  0.006793 -0.003455)
 32:    473.32   0.000127    0.64  0.000084  ( 0.005120  0.007541  0.000918)
 33:    484.70   0.003055   15.44  0.001967  ( 0.026660 -0.027924 -0.021827)
 34:    552.48   0.000784    3.96  0.000443  ( 0.014391  0.014634  0.004657)
 35:    576.25   0.002160   10.92  0.001170  ( 0.020095  0.025889 -0.009785)
 36:    588.05   0.000402    2.03  0.000213  ( 0.011748  0.002163 -0.008401)
 37:    589.86   0.001727    8.73  0.000914  ( 0.017147 -0.002122  0.024804)
 38:    597.41   0.002654   13.41  0.001386  ( 0.003302  0.025088 -0.027311)
 39:    626.66   0.000849    4.29  0.000423  (-0.002918 -0.006198 -0.019381)
 40:    653.99   0.000676    3.42  0.000323  ( 0.007510  0.005489  0.015364)
 41:    698.22   0.000598    3.02  0.000267  ( 0.014933 -0.001079  0.006573)
 42:    743.70   0.000754    3.81  0.000316  ( 0.014051 -0.006875 -0.008469)
 43:    753.31   0.010275   51.92  0.004256  (-0.005624 -0.021747  0.061252)
 44:    760.31   0.001589    8.03  0.000652  ( 0.010605 -0.021884  0.007799)
 45:    775.90   0.000029    0.15  0.000012  (-0.001828  0.002262 -0.001765)
 46:    785.19   0.001318    6.66  0.000524  (-0.000056  0.012544 -0.019146)
 47:    805.00   0.000700    3.54  0.000272  (-0.011278 -0.000951 -0.011975)
 48:    829.64   0.001526    7.71  0.000574  ( 0.023750  0.002135 -0.002343)
 49:    851.33   0.001871    9.45  0.000686  (-0.005249  0.011097 -0.023131)
 50:    858.03   0.000098    0.50  0.000036  ( 0.003809 -0.002521  0.003849)
 51:    890.99   0.000138    0.70  0.000048  (-0.006515 -0.002403 -0.000114)
 52:    918.10   0.000132    0.67  0.000045  ( 0.001275  0.002105 -0.006233)
 53:    960.91   0.000161    0.81  0.000052  ( 0.004279 -0.002747  0.005128)
 54:    962.90   0.000015    0.07  0.000005  ( 0.000277 -0.001298  0.001737)
 55:   1002.30   0.002975   15.03  0.000926  (-0.024925  0.000015 -0.017462)
 56:   1010.94   0.003372   17.04  0.001041  (-0.006621 -0.024277  0.020192)
 57:   1024.28   0.002394   12.10  0.000729  ( 0.007706  0.000701 -0.025875)
 58:   1026.70   0.004666   23.58  0.001418  ( 0.009422  0.036456  0.000591)
 59:   1043.72   0.001587    8.02  0.000475  ( 0.015183 -0.014395 -0.006068)
 60:   1064.26   0.000779    3.94  0.000228  ( 0.000915  0.005098 -0.014200)
 61:   1078.86   0.002246   11.35  0.000650  ( 0.020397 -0.001180  0.015236)
 62:   1095.41   0.001159    5.86  0.000330  (-0.010265 -0.014986 -0.000559)
 63:   1108.36   0.002542   12.85  0.000716  ( 0.012038  0.004543  0.023454)
 64:   1118.97   0.007125   36.00  0.001987  (-0.022919 -0.035027 -0.015321)
 65:   1141.22   0.000120    0.61  0.000033  ( 0.000513 -0.005670 -0.000651)
 66:   1158.51   0.000762    3.85  0.000205  (-0.004079 -0.011242  0.007890)
 67:   1168.54   0.009011   45.54  0.002407  ( 0.038583 -0.014592  0.026552)
 68:   1186.94   0.001338    6.76  0.000352  ( 0.015692  0.003181  0.009771)
 69:   1190.03   0.000635    3.21  0.000166  ( 0.010924 -0.005625  0.003929)
 70:   1221.08   0.005858   29.61  0.001497  ( 0.000905  0.016344  0.035060)
 71:   1250.99   0.011066   55.92  0.002760  ( 0.032774  0.040566  0.006375)
 72:   1261.37   0.001424    7.20  0.000352  (-0.017939 -0.005464 -0.000795)
 73:   1284.10   0.002382   12.04  0.000579  (-0.017789  0.013647  0.008733)
 74:   1289.37   0.005963   30.13  0.001443  (-0.002801 -0.026699  0.026878)
 75:   1299.56   0.016426   83.01  0.003944  ( 0.002082  0.061868  0.010597)
 76:   1326.35   0.000904    4.57  0.000213  (-0.001556 -0.014485  0.000686)
 77:   1337.77   0.002121   10.72  0.000495  (-0.004890 -0.020895 -0.005845)
 78:   1348.48   0.000443    2.24  0.000103  (-0.008777  0.002599  0.004339)
 79:   1375.87   0.000124    0.63  0.000028  (-0.005005  0.001498 -0.000873)
 80:   1389.48   0.007618   38.50  0.001711  (-0.041093  0.004507 -0.001398)
 81:   1402.81   0.001546    7.81  0.000344  ( 0.010801 -0.012763 -0.008020)
 82:   1411.33   0.005703   28.82  0.001261  ( 0.028926  0.020578 -0.000972)
 83:   1419.63   0.003195   16.15  0.000702  ( 0.007149  0.022582  0.011886)
 84:   1448.48   0.007347   37.13  0.001583  ( 0.018097 -0.014395  0.032376)
 85:   1461.55   0.018314   92.55  0.003910  (-0.013504  0.051469 -0.032847)
 86:   1472.22   0.005269   26.63  0.001117  (-0.033398  0.001085 -0.000612)
 87:   1474.71   0.021046  106.36  0.004454  (-0.031210 -0.055124 -0.020996)
 88:   1495.28   0.005309   26.83  0.001108  ( 0.029040  0.016202  0.001467)
 89:   1500.91   0.001204    6.09  0.000250  (-0.002675  0.010932 -0.011123)
 90:   1501.26   0.004653   23.52  0.000967  ( 0.015466 -0.023583 -0.013111)
 91:   1515.19   0.000985    4.98  0.000203  (-0.001589 -0.002272 -0.013972)
 92:   1518.56   0.003170   16.02  0.000651  (-0.006661  0.024470  0.002876)
 93:   1520.80   0.000809    4.09  0.000166  ( 0.006991  0.003183 -0.010349)
 94:   1525.62   0.000014    0.07  0.000003  (-0.000143 -0.001666 -0.000209)
 95:   1535.16   0.005187   26.21  0.001054  (-0.007995  0.023303  0.021151)
 96:   1539.31   0.005364   27.11  0.001087  (-0.032232 -0.000611 -0.006944)
 97:   1542.25   0.000545    2.75  0.000110  ( 0.008868 -0.005313 -0.001829)
 98:   1544.61   0.001163    5.88  0.000235  ( 0.002271 -0.005489 -0.014131)
 99:   1570.09   0.008546   43.19  0.001698  (-0.004677  0.021714 -0.034714)
100:   1604.13   0.000803    4.06  0.000156  (-0.007974 -0.009627  0.000133)
101:   1635.50   0.000255    1.29  0.000049  (-0.005488  0.004222  0.000835)
102:   1681.75   0.000497    2.51  0.000092  ( 0.003572 -0.008850 -0.001050)
103:   1739.51   0.049892  252.14  0.008951  ( 0.057850  0.028044  0.069408)
104:   1745.59   0.082480  416.82  0.014745  (-0.111264 -0.039846 -0.027889)
105:   3022.55   0.005048   25.51  0.000521  ( 0.014332  0.010078  0.014635)
106:   3030.57   0.014913   75.36  0.001536  (-0.004010  0.013056 -0.036730)
107:   3055.19   0.004521   22.85  0.000462  (-0.011422 -0.010233 -0.015055)
108:   3061.81   0.000903    4.57  0.000092  (-0.005922  0.006108  0.004438)
109:   3072.06   0.009987   50.47  0.001014  (-0.029300  0.012488  0.000152)
110:   3081.81   0.003210   16.22  0.000325  ( 0.008123 -0.008761 -0.013500)
111:   3083.92   0.007516   37.98  0.000761  ( 0.023537 -0.014366  0.000433)
112:   3086.22   0.004255   21.50  0.000430  (-0.009290  0.003750 -0.018163)
113:   3112.95   0.003105   15.69  0.000311  (-0.014463  0.007002 -0.007284)
114:   3124.16   0.002120   10.71  0.000212  ( 0.004393  0.004388 -0.013160)
115:   3138.01   0.003281   16.58  0.000326  (-0.005574  0.017085  0.001828)
116:   3170.08   0.000244    1.23  0.000024  (-0.002715  0.003697 -0.001736)
117:   3175.67   0.002989   15.11  0.000294  ( 0.014313  0.008694  0.003641)
118:   3175.92   0.000380    1.92  0.000037  (-0.003552 -0.004759 -0.001430)
119:   3183.36   0.000363    1.84  0.000036  (-0.004734  0.003544  0.000799)
120:   3187.77   0.002386   12.06  0.000234  (-0.005664  0.013734 -0.003586)
121:   3190.92   0.000156    0.79  0.000015  (-0.003280 -0.001760 -0.001162)
122:   3194.33   0.007745   39.14  0.000757  ( 0.014089  0.021936  0.008769)
123:   3207.64   0.006066   30.65  0.000590  (-0.021373  0.011205  0.002791)
124:   3270.28   0.000408    2.06  0.000039  ( 0.005540 -0.002484 -0.001426)
125:   3670.58   0.012168   61.49  0.001035  (-0.008813 -0.029084 -0.010535)

--------------------------
THERMOCHEMISTRY AT 298.15K
--------------------------

Temperature         ... 298.15 K
Pressure            ... 1.00 atm
Total Mass          ... 287.36 AMU

Throughout the following assumptions are being made:
  (1) The electronic state is orbitally nondegenerate
  (2) There are no thermally accessible electronically excited states
  (3) Hindered rotations indicated by low frequency modes are not
      treated as such but are treated as vibrations and this may
      cause some error
  (4) All equations used are the standard statistical mechanics
      equations for an ideal gas
  (5) All vibrations are strictly harmonic

freq.      17.26  E(vib)   ...       0.57
freq.      25.27  E(vib)   ...       0.56
freq.      31.55  E(vib)   ...       0.55
freq.      52.16  E(vib)   ...       0.52
freq.      74.34  E(vib)   ...       0.49
freq.      78.56  E(vib)   ...       0.49
freq.      99.54  E(vib)   ...       0.46
freq.     110.09  E(vib)   ...       0.45
freq.     120.48  E(vib)   ...       0.44
freq.     129.12  E(vib)   ...       0.43
freq.     152.00  E(vib)   ...       0.40
freq.     165.68  E(vib)   ...       0.39
freq.     185.43  E(vib)   ...       0.37
freq.     217.93  E(vib)   ...       0.33
freq.     228.19  E(vib)   ...       0.32
freq.     244.96  E(vib)   ...       0.31
freq.     254.84  E(vib)   ...       0.30
freq.     282.95  E(vib)   ...       0.28
freq.     336.21  E(vib)   ...       0.24
freq.     354.15  E(vib)   ...       0.22
freq.     372.68  E(vib)   ...       0.21
freq.     383.39  E(vib)   ...       0.20
freq.     425.63  E(vib)   ...       0.18
freq.     432.79  E(vib)   ...       0.17
freq.     434.46  E(vib)   ...       0.17
freq.     462.82  E(vib)   ...       0.16
freq.     473.32  E(vib)   ...       0.15
freq.     484.70  E(vib)   ...       0.15
freq.     552.48  E(vib)   ...       0.12
freq.     576.25  E(vib)   ...       0.11
freq.     588.05  E(vib)   ...       0.10
freq.     589.86  E(vib)   ...       0.10
freq.     597.41  E(vib)   ...       0.10
freq.     626.66  E(vib)   ...       0.09
freq.     653.99  E(vib)   ...       0.08
freq.     698.22  E(vib)   ...       0.07
freq.     743.70  E(vib)   ...       0.06
freq.     753.31  E(vib)   ...       0.06
freq.     760.31  E(vib)   ...       0.06
freq.     775.90  E(vib)   ...       0.05
freq.     785.19  E(vib)   ...       0.05
freq.     805.00  E(vib)   ...       0.05
freq.     829.64  E(vib)   ...       0.04
freq.     851.33  E(vib)   ...       0.04
freq.     858.03  E(vib)   ...       0.04
freq.     890.99  E(vib)   ...       0.04
freq.     918.10  E(vib)   ...       0.03
freq.     960.91  E(vib)   ...       0.03
freq.     962.90  E(vib)   ...       0.03
freq.    1002.30  E(vib)   ...       0.02
freq.    1010.94  E(vib)   ...       0.02
freq.    1024.28  E(vib)   ...       0.02
freq.    1026.70  E(vib)   ...       0.02
freq.    1043.72  E(vib)   ...       0.02
freq.    1064.26  E(vib)   ...       0.02
freq.    1078.86  E(vib)   ...       0.02
freq.    1095.41  E(vib)   ...       0.02
freq.    1108.36  E(vib)   ...       0.02
freq.    1118.97  E(vib)   ...       0.01
freq.    1141.22  E(vib)   ...       0.01
freq.    1158.51  E(vib)   ...       0.01
freq.    1168.54  E(vib)   ...       0.01
freq.    1186.94  E(vib)   ...       0.01
freq.    1190.03  E(vib)   ...       0.01
freq.    1221.08  E(vib)   ...       0.01
freq.    1250.99  E(vib)   ...       0.01
freq.    1261.37  E(vib)   ...       0.01
freq.    1284.10  E(vib)   ...       0.01
freq.    1289.37  E(vib)   ...       0.01
freq.    1299.56  E(vib)   ...       0.01
freq.    1326.35  E(vib)   ...       0.01
freq.    1337.77  E(vib)   ...       0.01
freq.    1348.48  E(vib)   ...       0.01
freq.    1375.87  E(vib)   ...       0.01
freq.    1389.48  E(vib)   ...       0.00
freq.    1402.81  E(vib)   ...       0.00
freq.    1411.33  E(vib)   ...       0.00
freq.    1419.63  E(vib)   ...       0.00
freq.    1448.48  E(vib)   ...       0.00
freq.    1461.55  E(vib)   ...       0.00
freq.    1472.22  E(vib)   ...       0.00
freq.    1474.71  E(vib)   ...       0.00
freq.    1495.28  E(vib)   ...       0.00
freq.    1500.91  E(vib)   ...       0.00
freq.    1501.26  E(vib)   ...       0.00
freq.    1515.19  E(vib)   ...       0.00
freq.    1518.56  E(vib)   ...       0.00
freq.    1520.80  E(vib)   ...       0.00
freq.    1525.62  E(vib)   ...       0.00
freq.    1535.16  E(vib)   ...       0.00
freq.    1539.31  E(vib)   ...       0.00
freq.    1542.25  E(vib)   ...       0.00
freq.    1544.61  E(vib)   ...       0.00
freq.    1570.09  E(vib)   ...       0.00
freq.    1604.13  E(vib)   ...       0.00
freq.    1635.50  E(vib)   ...       0.00
freq.    1681.75  E(vib)   ...       0.00
freq.    1739.51  E(vib)   ...       0.00
freq.    1745.59  E(vib)   ...       0.00
freq.    3022.55  E(vib)   ...       0.00
freq.    3030.57  E(vib)   ...       0.00
freq.    3055.19  E(vib)   ...       0.00
freq.    3061.81  E(vib)   ...       0.00
freq.    3072.06  E(vib)   ...       0.00
freq.    3081.81  E(vib)   ...       0.00
freq.    3083.92  E(vib)   ...       0.00
freq.    3086.22  E(vib)   ...       0.00
freq.    3112.95  E(vib)   ...       0.00
freq.    3124.16  E(vib)   ...       0.00
freq.    3138.01  E(vib)   ...       0.00
freq.    3170.08  E(vib)   ...       0.00
freq.    3175.67  E(vib)   ...       0.00
freq.    3175.92  E(vib)   ...       0.00
freq.    3183.36  E(vib)   ...       0.00
freq.    3187.77  E(vib)   ...       0.00
freq.    3190.92  E(vib)   ...       0.00
freq.    3194.33  E(vib)   ...       0.00
freq.    3207.64  E(vib)   ...       0.00
freq.    3270.28  E(vib)   ...       0.00
freq.    3670.58  E(vib)   ...       0.00

------------
INNER ENERGY
------------

The inner energy is: U= E(el) + E(ZPE) + E(vib) + E(rot) + E(trans)
    E(el)   - is the total energy from the electronic structure calculation
              = E(kin-el) + E(nuc-el) + E(el-el) + E(nuc-nuc)
    E(ZPE)  - the the zero temperature vibrational energy from the frequency calculation
    E(vib)  - the the finite temperature correction to E(ZPE) due to population
              of excited vibrational states
    E(rot)  - is the rotational thermal energy
    E(trans)- is the translational thermal energy

Summary of contributions to the inner energy U:
Electronic energy                ...   -936.57737599 Eh
Zero point energy                ...      0.35610996 Eh     223.46 kcal/mol
Thermal vibrational correction   ...      0.01795150 Eh      11.26 kcal/mol
Thermal rotational correction    ...      0.00141627 Eh       0.89 kcal/mol
Thermal translational correction ...      0.00141627 Eh       0.89 kcal/mol
-----------------------------------------------------------------------
Total thermal energy                   -936.20048200 Eh

Rotational constants in cm-1:     0.017388     0.005873     0.004818

                             ****ORCA TERMINATED NORMALLY****
TOTAL RUN TIME: 0 days 0 hours 54 minutes 26 seconds 311 msec
