                         Program Version 5.0.4 -  RELEASE  -
|  1> ! OPT FREQ B3LYP 6-31G(d) D4 AUTOAUX
|  2> ! CPCM
|  3>
|  4> %cpcm
|  5> epsilon 9.8629
|  6> refrac  1.4295
|  7> end
|  8>
|  9> %PAL NPROCS 4 END
| 10>
| 11> %maxcore 3375
| 12>
| 13> *xyzfile 0 1 /users/fjb15167/WWenergy/structures/Nwe.xyz
| 14>
| 15>                          ****END OF INPUT****
 Total Charge           Charge          ....    0
 Multiplicity           Mult            ....    1
 Number of Electrons    NEL             ....  154
Dispersion correction           -0.084192995
FINAL SINGLE POINT ENERGY      -936.596414904323
Dispersion correction            ... Starting D4
Dispersion correction           -0.083278324
FINAL SINGLE POINT ENERGY      -936.597025785435
Dispersion correction            ... Starting D4
Dispersion correction           -0.083762588
FINAL SINGLE POINT ENERGY      -936.597314206545
Dispersion correction            ... Starting D4
FINAL SINGLE POINT ENERGY      -936.597381822188
FINAL SINGLE POINT ENERGY      -936.597445995583
FINAL SINGLE POINT ENERGY      -936.597524454613
FINAL SINGLE POINT ENERGY      -936.597631335023
FINAL SINGLE POINT ENERGY      -936.597695495603
FINAL SINGLE POINT ENERGY      -936.597718163436
FINAL SINGLE POINT ENERGY      -936.597752480356
FINAL SINGLE POINT ENERGY      -936.597765766185
FINAL SINGLE POINT ENERGY      -936.597769020623
FINAL SINGLE POINT ENERGY      -936.597770863820
FINAL SINGLE POINT ENERGY      -936.597772336796
FINAL SINGLE POINT ENERGY      -936.597771791269
FINAL SINGLE POINT ENERGY      -936.597770498553
FINAL SINGLE POINT ENERGY      -936.597769774588
Dispersion correction           -0.083611676
FINAL SINGLE POINT ENERGY      -936.597770240555
Dispersion correction            ... Starting D4
Dispersion correction           -0.083612744
FINAL SINGLE POINT ENERGY      -936.597770707626
Dispersion correction            ... Starting D4
                    ***********************HURRAY********************

CARTESIAN COORDINATES (ANGSTROEM)
---------------------------------
  C     -1.435275   -0.641552    0.184614
  C     -1.763082   -1.922160   -0.192859
  C     -2.669868    0.099721    0.219388
  H     -1.119807   -2.779194   -0.343227
  N     -3.126437   -2.023652   -0.388990
  C     -3.711893   -0.800959   -0.142906
  C     -2.996123    1.432194    0.528335
  H     -3.616216   -2.866550   -0.653125
  C     -5.052559   -0.403757   -0.204221
  C     -4.326780    1.830678    0.469683
  H     -2.218240    2.138256    0.810203
  H     -5.834670   -1.104984   -0.483056
  C     -5.344139    0.921252    0.104997
  H     -4.592682    2.857652    0.706884
  H     -6.375325    1.262703    0.066002
  C     -0.059482   -0.101177    0.425625
  H     -0.060775    0.583297    1.283148
  H      0.623391   -0.917391    0.676538
  C      0.469734    0.646454   -0.817721
  H      0.382872   -0.010006   -1.688638
  H     -0.151477    1.522506   -1.017051
  N      1.875250    1.051839   -0.717480
  C      2.861259    0.135602   -1.287411
  H      2.660976    0.006585   -2.355744
  H      3.845874    0.586793   -1.166308
  C      2.290554    2.244252   -0.191943
  C      2.779908   -1.271941   -0.682195
  N      3.230161   -1.454470    0.588077
  C      1.217487    3.207284    0.285837
  H      0.602091    3.554574   -0.552315
  H      0.549132    2.750998    1.022652
  H      1.715682    4.066722    0.737118
  C      3.057967   -2.758172    1.219008
  H      2.240055   -2.727463    1.952239
  H      2.825341   -3.495632    0.452409
  H      3.980563   -3.038164    1.738909
  C      3.703911   -0.395425    1.471597
  H      2.932274   -0.133933    2.208801
  H      4.587098   -0.753560    2.012145
  H      3.975490    0.503102    0.920271
  O      3.488961    2.545632   -0.122033
  O      2.286801   -2.187955   -1.353255

 Multiplicity           Mult            ....    1
 Number of Electrons    NEL             ....  154
 Basis Dimension        Dim             ....  336

ORBITAL ENERGIES
----------------

  NO   OCC          E(Eh)            E(eV)
   0   2.0000     -19.108389      -519.9657
   1   2.0000     -19.107040      -519.9290
   2   2.0000     -14.361983      -390.8094
   3   2.0000     -14.359938      -390.7538
   4   2.0000     -14.359257      -390.7352
   5   2.0000     -10.282769      -279.8084
   6   2.0000     -10.279234      -279.7122
   7   2.0000     -10.210734      -277.8482
   8   2.0000     -10.209491      -277.8144
   9   2.0000     -10.206382      -277.7298
  10   2.0000     -10.202698      -277.6295
  11   2.0000     -10.199375      -277.5391
  12   2.0000     -10.196490      -277.4606
  13   2.0000     -10.176596      -276.9192
  14   2.0000     -10.175912      -276.9006
  15   2.0000     -10.173502      -276.8351
  16   2.0000     -10.173191      -276.8266
  17   2.0000     -10.171950      -276.7928
  18   2.0000     -10.171203      -276.7725
  19   2.0000     -10.168430      -276.6970
  20   2.0000     -10.168140      -276.6891
  21   2.0000      -1.031769       -28.0759
  22   2.0000      -1.025049       -27.8930
  23   2.0000      -0.968668       -26.3588
  24   2.0000      -0.933595       -25.4044
  25   2.0000      -0.926260       -25.2048
  26   2.0000      -0.830657       -22.6033
  27   2.0000      -0.797607       -21.7040
  28   2.0000      -0.759718       -20.6730
  29   2.0000      -0.743202       -20.2236
  30   2.0000      -0.726004       -19.7556
  31   2.0000      -0.718353       -19.5474
  32   2.0000      -0.708378       -19.2760
  33   2.0000      -0.702763       -19.1232
  34   2.0000      -0.670945       -18.2574
  35   2.0000      -0.645409       -17.5625
  36   2.0000      -0.612687       -16.6721
  37   2.0000      -0.582983       -15.8638
  38   2.0000      -0.553237       -15.0543
  39   2.0000      -0.548738       -14.9319
  40   2.0000      -0.535404       -14.5691
  41   2.0000      -0.526600       -14.3295
  42   2.0000      -0.510310       -13.8862
  43   2.0000      -0.485444       -13.2096
  44   2.0000      -0.477324       -12.9886
  45   2.0000      -0.473832       -12.8936
  46   2.0000      -0.464821       -12.6484
  47   2.0000      -0.461609       -12.5610
  48   2.0000      -0.454439       -12.3659
  49   2.0000      -0.446721       -12.1559
  50   2.0000      -0.437768       -11.9123
  51   2.0000      -0.421436       -11.4679
  52   2.0000      -0.417197       -11.3525
  53   2.0000      -0.414892       -11.2898
  54   2.0000      -0.410832       -11.1793
  55   2.0000      -0.402495       -10.9524
  56   2.0000      -0.400929       -10.9098
  57   2.0000      -0.395892       -10.7728
  58   2.0000      -0.394221       -10.7273
  59   2.0000      -0.390296       -10.6205
  60   2.0000      -0.382361       -10.4046
  61   2.0000      -0.379561       -10.3284
  62   2.0000      -0.373905       -10.1745
  63   2.0000      -0.372280       -10.1302
  64   2.0000      -0.359730        -9.7888
  65   2.0000      -0.353483        -9.6188
  66   2.0000      -0.346995        -9.4422
  67   2.0000      -0.338040        -9.1985
  68   2.0000      -0.327495        -8.9116
  69   2.0000      -0.321432        -8.7466
  70   2.0000      -0.269378        -7.3302
  71   2.0000      -0.257437        -7.0052
  72   2.0000      -0.251249        -6.8368
  73   2.0000      -0.237180        -6.4540
  74   2.0000      -0.235894        -6.4190
  75   2.0000      -0.216691        -5.8965
  76   2.0000      -0.194740        -5.2991
  77   0.0000      -0.004819        -0.1311
  78   0.0000       0.016585         0.4513
  79   0.0000       0.028921         0.7870
  80   0.0000       0.031507         0.8573
  81   0.0000       0.066775         1.8170

MULLIKEN ATOMIC CHARGES
-----------------------
   0 C :    0.050414
   1 C :   -0.031425
   2 C :    0.063391
   3 H :    0.176162
   4 N :   -0.635269
   5 C :    0.269411
   6 C :   -0.230875
   7 H :    0.366281
   8 C :   -0.187254
   9 C :   -0.167045
  10 H :    0.144450
  11 H :    0.148841
  12 C :   -0.174680
  13 H :    0.135105
  14 H :    0.138770
  15 C :   -0.364129
  16 H :    0.159015
  17 H :    0.171699
  18 C :   -0.163582
  19 H :    0.172178
  20 H :    0.179230
  21 N :   -0.368557
  22 C :   -0.249520
  23 H :    0.180432
  24 H :    0.205122
  25 C :    0.528718
  26 C :    0.517690
  27 N :   -0.359488
  28 C :   -0.566721
  29 H :    0.196149
  30 H :    0.195784
  31 H :    0.181705
  32 C :   -0.330402
  33 H :    0.169847
  34 H :    0.186705
  35 H :    0.171229
  36 C :   -0.345274
  37 H :    0.169595
  38 H :    0.171990
  39 H :    0.196795
  40 O :   -0.532812
  41 O :   -0.539677
Sum of atomic charges:   -0.0000000

LOEWDIN ATOMIC CHARGES
----------------------
   0 C :   -0.086188
   1 C :   -0.105095
   2 C :   -0.050655
   3 H :    0.148841
   4 N :   -0.130862
   5 C :    0.007360
   6 C :   -0.148279
   7 H :    0.280373
   8 C :   -0.163232
   9 C :   -0.163613
  10 H :    0.136474
  11 H :    0.141298
  12 C :   -0.152386
  13 H :    0.133730
  14 H :    0.135559
  15 C :   -0.237038
  16 H :    0.132707
  17 H :    0.140513
  18 C :   -0.157743
  19 H :    0.139849
  20 H :    0.141411
  21 N :   -0.069412
  22 C :   -0.178235
  23 H :    0.144947
  24 H :    0.159733
  25 C :    0.114356
  26 C :    0.093941
  27 N :   -0.070260
  28 C :   -0.393172
  29 H :    0.156995
  30 H :    0.152309
  31 H :    0.150373
  32 C :   -0.279988
  33 H :    0.131253
  34 H :    0.148028
  35 H :    0.136167
  36 C :   -0.285147
  37 H :    0.131245
  38 H :    0.136466
  39 H :    0.149583
  40 O :   -0.335522
  41 O :   -0.336685

  Mayer bond orders larger than 0.100000
B(  0-C ,  1-C ) :   1.5540 B(  0-C ,  2-C ) :   1.2600 B(  0-C , 15-C ) :   0.9977
B(  1-C ,  3-H ) :   0.9214 B(  1-C ,  4-N ) :   1.0917 B(  2-C ,  5-C ) :   1.2819
B(  2-C ,  6-C ) :   1.3528 B(  4-N ,  5-C ) :   1.0264 B(  4-N ,  7-H ) :   0.8191
B(  5-C ,  8-C ) :   1.3576 B(  6-C ,  9-C ) :   1.4768 B(  6-C , 10-H ) :   0.9184
B(  8-C , 11-H ) :   0.9201 B(  8-C , 12-C ) :   1.4763 B(  9-C , 12-C ) :   1.3763
B(  9-C , 13-H ) :   0.9304 B( 12-C , 14-H ) :   0.9291 B( 15-C , 16-H ) :   0.9198
B( 15-C , 17-H ) :   0.9209 B( 15-C , 18-C ) :   0.9736 B( 18-C , 19-H ) :   0.9231
B( 18-C , 20-H ) :   0.9213 B( 18-C , 21-N ) :   0.9228 B( 21-N , 22-C ) :   0.9542
B( 21-N , 25-C ) :   1.1649 B( 22-C , 23-H ) :   0.9161 B( 22-C , 24-H ) :   0.8935
B( 22-C , 26-C ) :   0.9376 B( 25-C , 28-C ) :   0.9920 B( 25-C , 40-O ) :   1.7484
B( 26-C , 27-N ) :   1.1935 B( 26-C , 41-O ) :   1.7528 B( 27-N , 32-C ) :   0.9480
B( 27-N , 36-C ) :   0.9505 B( 27-N , 41-O ) :   0.1007 B( 28-C , 29-H ) :   0.9212
B( 28-C , 30-H ) :   0.9170 B( 28-C , 31-H ) :   0.9386 B( 32-C , 33-H ) :   0.9343
B( 32-C , 34-H ) :   0.9255 B( 32-C , 35-H ) :   0.9373 B( 36-C , 37-H ) :   0.9308
B( 36-C , 38-H ) :   0.9347 B( 36-C , 39-H ) :   0.9025

Dispersion correction           -0.083612801
FINAL SINGLE POINT ENERGY      -936.597770916939

DIPOLE MOMENT
-------------
                                X             Y             Z
Electronic contribution:     -8.04244      -2.69762      -5.58156
Nuclear contribution   :      6.94311       1.84315       6.44748
                        -----------------------------------------
Total Dipole Moment    :     -1.09933      -0.85447       0.86592
                        -----------------------------------------
Magnitude (a.u.)       :      1.63966
Magnitude (Debye)      :      4.16767

Dispersion correction in the Hessian             ... Starting D4

VIBRATIONAL FREQUENCIES
-----------------------

Scaling factor for frequencies =  1.000000000  (already applied!)

   0:         0.00 cm**-1
   1:         0.00 cm**-1
   2:         0.00 cm**-1
   3:         0.00 cm**-1
   4:         0.00 cm**-1
   5:         0.00 cm**-1
   6:       -11.74 cm**-1 ***imaginary mode***
   7:        22.94 cm**-1
   8:        37.35 cm**-1
   9:        60.33 cm**-1
  10:        69.94 cm**-1
  11:        72.02 cm**-1
  12:        83.20 cm**-1
  13:       107.27 cm**-1
  14:       113.74 cm**-1
  15:       135.87 cm**-1
  16:       159.25 cm**-1
  17:       167.88 cm**-1
  18:       185.84 cm**-1
  19:       220.79 cm**-1
  20:       228.46 cm**-1
  21:       239.07 cm**-1
  22:       254.92 cm**-1
  23:       274.40 cm**-1
  24:       344.77 cm**-1
  25:       352.71 cm**-1
  26:       378.90 cm**-1
  27:       388.30 cm**-1
  28:       430.26 cm**-1
  29:       434.94 cm**-1
  30:       445.44 cm**-1
  31:       459.92 cm**-1
  32:       470.07 cm**-1
  33:       495.65 cm**-1
  34:       550.42 cm**-1
  35:       575.29 cm**-1
  36:       588.09 cm**-1
  37:       592.42 cm**-1
  38:       600.74 cm**-1
  39:       626.68 cm**-1
  40:       652.51 cm**-1
  41:       701.33 cm**-1
  42:       748.00 cm**-1
  43:       756.81 cm**-1
  44:       760.82 cm**-1
  45:       770.53 cm**-1
  46:       781.39 cm**-1
  47:       794.71 cm**-1
  48:       816.05 cm**-1
  49:       846.15 cm**-1
  50:       863.13 cm**-1
  51:       889.55 cm**-1
  52:       929.72 cm**-1
  53:       960.73 cm**-1
  54:       970.39 cm**-1
  55:      1002.99 cm**-1
  56:      1010.40 cm**-1
  57:      1025.35 cm**-1
  58:      1032.90 cm**-1
  59:      1038.48 cm**-1
  60:      1062.02 cm**-1
  61:      1078.84 cm**-1
  62:      1090.71 cm**-1
  63:      1108.73 cm**-1
  64:      1111.20 cm**-1
  65:      1135.28 cm**-1
  66:      1151.56 cm**-1
  67:      1168.07 cm**-1
  68:      1178.71 cm**-1
  69:      1184.57 cm**-1
  70:      1218.42 cm**-1
  71:      1249.72 cm**-1
  72:      1259.72 cm**-1
  73:      1281.16 cm**-1
  74:      1287.31 cm**-1
  75:      1295.41 cm**-1
  76:      1322.84 cm**-1
  77:      1341.72 cm**-1
  78:      1346.31 cm**-1
  79:      1373.20 cm**-1
  80:      1386.97 cm**-1
  81:      1397.35 cm**-1
  82:      1409.36 cm**-1
  83:      1415.49 cm**-1
  84:      1442.40 cm**-1
  85:      1457.45 cm**-1
  86:      1465.79 cm**-1
  87:      1474.45 cm**-1
  88:      1483.94 cm**-1
  89:      1490.33 cm**-1
  90:      1496.89 cm**-1
  91:      1500.77 cm**-1
  92:      1505.80 cm**-1
  93:      1509.80 cm**-1
  94:      1511.93 cm**-1
  95:      1518.72 cm**-1
  96:      1530.59 cm**-1
  97:      1533.97 cm**-1
  98:      1536.58 cm**-1
  99:      1556.19 cm**-1
 100:      1602.82 cm**-1
 101:      1629.74 cm**-1
 102:      1675.55 cm**-1
 103:      1707.35 cm**-1
 104:      1713.96 cm**-1
 105:      3033.09 cm**-1
 106:      3037.95 cm**-1
 107:      3054.61 cm**-1
 108:      3064.91 cm**-1
 109:      3083.24 cm**-1
 110:      3089.14 cm**-1
 111:      3096.11 cm**-1
 112:      3101.41 cm**-1
 113:      3117.86 cm**-1
 114:      3130.40 cm**-1
 115:      3143.13 cm**-1
 116:      3166.17 cm**-1
 117:      3171.37 cm**-1
 118:      3179.34 cm**-1
 119:      3188.25 cm**-1
 120:      3191.67 cm**-1
 121:      3192.94 cm**-1
 122:      3197.93 cm**-1
 123:      3208.19 cm**-1
 124:      3269.33 cm**-1
 125:      3652.57 cm**-1

IR SPECTRUM
-----------

 Mode   freq       eps      Int      T**2         TX        TY        TZ
       cm**-1   L/(mol*cm) km/mol    a.u.
----------------------------------------------------------------------------
  7:     22.94   0.000296    1.50  0.004032  ( 0.006154 -0.029224  0.056038)
  8:     37.35   0.000817    4.13  0.006829  ( 0.071108  0.015809 -0.039019)
  9:     60.33   0.000642    3.25  0.003323  ( 0.036928 -0.024896 -0.036600)
 10:     69.94   0.001143    5.77  0.005098  (-0.052707  0.041912  0.023734)
 11:     72.02   0.000163    0.82  0.000706  ( 0.010763 -0.022164 -0.009929)
 12:     83.20   0.000018    0.09  0.000066  (-0.004838 -0.006497 -0.000251)
 13:    107.27   0.000833    4.21  0.002423  ( 0.001989 -0.015790  0.046581)
 14:    113.74   0.002059   10.41  0.005649  (-0.008389  0.052798 -0.052832)
 15:    135.87   0.001664    8.41  0.003822  ( 0.030126 -0.048418  0.023880)
 16:    159.25   0.000265    1.34  0.000520  ( 0.007924 -0.018151 -0.011306)
 17:    167.88   0.000018    0.09  0.000033  (-0.002059 -0.004254 -0.003323)
 18:    185.84   0.000312    1.58  0.000524  (-0.004306  0.000335  0.022473)
 19:    220.79   0.000247    1.25  0.000349  ( 0.003805 -0.004408  0.017746)
 20:    228.46   0.001796    9.08  0.002454  ( 0.012280  0.011223 -0.046656)
 21:    239.07   0.000197    1.00  0.000258  ( 0.007803  0.012920  0.005470)
 22:    254.92   0.002205   11.14  0.002699  (-0.041793  0.025422  0.017507)
 23:    274.40   0.001635    8.26  0.001860  ( 0.037019 -0.016951  0.014214)
 24:    344.77   0.004649   23.49  0.004207  (-0.006279  0.025603 -0.059267)
 25:    352.71   0.000782    3.95  0.000692  ( 0.010836  0.022964  0.006879)
 26:    378.90   0.002147   10.85  0.001768  (-0.003774  0.006913  0.041306)
 27:    388.30   0.001042    5.27  0.000838  (-0.003900  0.019696 -0.020845)
 28:    430.26   0.012570   63.52  0.009117  (-0.013784 -0.029271  0.089834)
 29:    434.94   0.002665   13.47  0.001912  ( 0.008932  0.006083 -0.042371)
 30:    445.44   0.013107   66.24  0.009182  ( 0.019496  0.023950 -0.090713)
 31:    459.92   0.004279   21.62  0.002903  (-0.047369 -0.015691 -0.020334)
 32:    470.07   0.000530    2.68  0.000352  (-0.010872  0.014019 -0.006109)
 33:    495.65   0.004780   24.16  0.003010  ( 0.038894 -0.027030 -0.027680)
 34:    550.42   0.001096    5.54  0.000622  ( 0.015183  0.019344  0.004118)
 35:    575.29   0.003867   19.54  0.002098  (-0.021384 -0.039379  0.009482)
 36:    588.09   0.001552    7.84  0.000824  ( 0.023814 -0.006135  0.014796)
 37:    592.42   0.002650   13.39  0.001396  (-0.005118  0.003029 -0.036886)
 38:    600.74   0.003323   16.79  0.001726  ( 0.004764  0.028054 -0.030274)
 39:    626.68   0.001238    6.26  0.000616  (-0.002640 -0.004665 -0.024241)
 40:    652.51   0.001332    6.73  0.000637  ( 0.002138  0.007232  0.024086)
 41:    701.33   0.000787    3.98  0.000350  (-0.013253 -0.001619 -0.013106)
 42:    748.00   0.001138    5.75  0.000475  ( 0.018466 -0.001315 -0.011491)
 43:    756.81   0.016173   81.73  0.006669  (-0.009565 -0.022032  0.078049)
 44:    760.82   0.003418   17.27  0.001402  ( 0.020892 -0.030765  0.004358)
 45:    770.53   0.000939    4.74  0.000380  (-0.008083  0.001398 -0.017686)
 46:    781.39   0.002819   14.24  0.001126  (-0.010792  0.012598 -0.029164)
 47:    794.71   0.000952    4.81  0.000374  ( 0.013039  0.002935  0.013972)
 48:    816.05   0.001561    7.89  0.000597  (-0.021384 -0.006846  0.009636)
 49:    846.15   0.003160   15.97  0.001166  (-0.012350  0.000204 -0.031828)
 50:    863.13   0.000036    0.18  0.000013  ( 0.002655  0.002292  0.000757)
 51:    889.55   0.000201    1.01  0.000070  (-0.006985 -0.004613 -0.000585)
 52:    929.72   0.000445    2.25  0.000149  ( 0.002020  0.003915 -0.011399)
 53:    960.73   0.000364    1.84  0.000118  ( 0.007889  0.002337  0.007115)
 54:    970.39   0.000001    0.00  0.000000  (-0.000341 -0.000298 -0.000293)
 55:   1002.99   0.005213   26.35  0.001622  (-0.022027  0.006172 -0.033147)
 56:   1010.40   0.006693   33.82  0.002067  (-0.023259 -0.032504  0.021672)
 57:   1025.35   0.004261   21.53  0.001297  (-0.012703  0.022590  0.025002)
 58:   1032.90   0.003930   19.86  0.001187  ( 0.016326  0.028057 -0.011561)
 59:   1038.48   0.004756   24.03  0.001429  (-0.021000  0.030890  0.005828)
 60:   1062.02   0.001876    9.48  0.000551  (-0.002348  0.009495 -0.021345)
 61:   1078.84   0.003787   19.14  0.001095  (-0.024863 -0.002964 -0.021644)
 62:   1090.71   0.002296   11.60  0.000657  ( 0.007500  0.024508 -0.000075)
 63:   1108.73   0.011306   57.14  0.003182  ( 0.019496  0.043661  0.029931)
 64:   1111.20   0.004284   21.65  0.001203  (-0.006271 -0.034095  0.001124)
 65:   1135.28   0.000576    2.91  0.000158  ( 0.002282 -0.012291 -0.001452)
 66:   1151.56   0.000526    2.66  0.000143  (-0.001835 -0.007952  0.008716)
 67:   1168.07   0.009774   49.39  0.002611  ( 0.031142 -0.012846  0.038422)
 68:   1178.71   0.002943   14.87  0.000779  ( 0.020220  0.000329  0.019243)
 69:   1184.57   0.000718    3.63  0.000189  ( 0.007501  0.000600  0.011507)
 70:   1218.42   0.010641   53.77  0.002725  (-0.001351  0.021830  0.047402)
 71:   1249.72   0.018640   94.20  0.004655  (-0.032170 -0.059100 -0.011267)
 72:   1259.72   0.004237   21.41  0.001050  (-0.029141 -0.013245 -0.005007)
 73:   1281.16   0.008835   44.65  0.002152  (-0.023452  0.034092  0.020967)
 74:   1287.31   0.011891   60.09  0.002883  (-0.001360 -0.044447  0.030086)
 75:   1295.41   0.018616   94.08  0.004485  (-0.009326  0.063254  0.019913)
 76:   1322.84   0.003442   17.39  0.000812  (-0.006480 -0.027713 -0.001383)
 77:   1341.72   0.002316   11.71  0.000539  (-0.007599 -0.021495 -0.004359)
 78:   1346.31   0.001044    5.28  0.000242  ( 0.000477  0.012146  0.009707)
 79:   1373.20   0.000195    0.99  0.000044  (-0.002982 -0.003183 -0.005032)
 80:   1386.97   0.011267   56.94  0.002535  (-0.048704  0.012597 -0.002084)
 81:   1397.35   0.004437   22.42  0.000991  (-0.004608  0.029622  0.009597)
 82:   1409.36   0.007938   40.11  0.001758  ( 0.036192  0.020501 -0.005236)
 83:   1415.49   0.004213   21.29  0.000929  ( 0.006015  0.027170  0.012426)
 84:   1442.40   0.014816   74.87  0.003205  (-0.017917  0.016386 -0.051146)
 85:   1457.45   0.016653   84.16  0.003566  (-0.014010  0.044232 -0.037589)
 86:   1465.79   0.008160   41.24  0.001737  (-0.040565  0.009256 -0.002469)
 87:   1474.45   0.045419  229.53  0.009613  (-0.030677 -0.088169 -0.029965)
 88:   1483.94   0.004528   22.88  0.000952  ( 0.030580  0.003826  0.001571)
 89:   1490.33   0.000726    3.67  0.000152  ( 0.005380  0.004361 -0.010202)
 90:   1496.89   0.010334   52.22  0.002154  ( 0.012618 -0.043593 -0.009736)
 91:   1500.77   0.001131    5.72  0.000235  ( 0.001841  0.003783  0.014748)
 92:   1505.80   0.003165   16.00  0.000656  (-0.011475  0.015690  0.016676)
 93:   1509.80   0.004291   21.68  0.000887  (-0.006872  0.028616 -0.004561)
 94:   1511.93   0.000370    1.87  0.000076  (-0.000861 -0.008513 -0.001801)
 95:   1518.72   0.003666   18.53  0.000753  (-0.026646  0.006575 -0.000306)
 96:   1530.59   0.005656   28.59  0.001153  (-0.028606 -0.011318 -0.014382)
 97:   1533.97   0.006619   33.45  0.001347  ( 0.016618 -0.013408 -0.029845)
 98:   1536.58   0.001058    5.35  0.000215  (-0.011050  0.009629 -0.000020)
 99:   1556.19   0.016436   83.06  0.003296  (-0.005501  0.032632 -0.046913)
100:   1602.82   0.002615   13.22  0.000509  (-0.018026 -0.013432 -0.001973)
101:   1629.74   0.000163    0.83  0.000031  (-0.003968  0.003932 -0.000268)
102:   1675.55   0.001265    6.40  0.000236  ( 0.002929 -0.014957 -0.001844)
103:   1707.35   0.164552  831.58  0.030076  ( 0.138323  0.084472  0.061706)
104:   1713.96   0.064666  326.80  0.011774  (-0.012127 -0.039986 -0.100140)
105:   3033.09   0.005074   25.64  0.000522  ( 0.006743  0.020105  0.008503)
106:   3037.95   0.018597   93.98  0.001910  ( 0.005423  0.007365 -0.042739)
107:   3054.61   0.008039   40.62  0.000821  (-0.015973 -0.010801 -0.021200)
108:   3064.91   0.000776    3.92  0.000079  (-0.005693  0.005227  0.004393)
109:   3083.24   0.004523   22.86  0.000458  (-0.008788  0.008363  0.017624)
110:   3089.14   0.010939   55.28  0.001105  (-0.016006 -0.004309 -0.028814)
111:   3096.11   0.012852   64.95  0.001295  (-0.033788  0.011274 -0.005163)
112:   3101.41   0.004876   24.64  0.000491  (-0.020430  0.008179 -0.002528)
113:   3117.86   0.002569   12.99  0.000257  (-0.011569  0.010602 -0.003306)
114:   3130.40   0.001959    9.90  0.000195  (-0.002815 -0.002252  0.013501)
115:   3143.13   0.008079   40.83  0.000802  ( 0.013349 -0.024824 -0.002782)
116:   3166.17   0.001436    7.25  0.000141  (-0.004187  0.009745 -0.005384)
117:   3171.37   0.002998   15.15  0.000295  ( 0.011509  0.012002  0.004304)
118:   3179.34   0.000706    3.57  0.000069  (-0.008282 -0.000354 -0.000757)
119:   3188.25   0.002204   11.14  0.000216  (-0.014420 -0.001802 -0.002124)
120:   3191.67   0.001181    5.97  0.000115  (-0.003528  0.009745  0.002843)
121:   3192.94   0.000455    2.30  0.000044  (-0.005446 -0.003140 -0.002217)
122:   3197.93   0.009826   49.66  0.000959  ( 0.011392  0.027532  0.008432)
123:   3208.19   0.006710   33.91  0.000653  ( 0.022649 -0.011804 -0.000587)
124:   3269.33   0.000115    0.58  0.000011  ( 0.002779 -0.001721  0.000519)
125:   3652.57   0.031996  161.69  0.002734  ( 0.019026  0.046896  0.013128)

--------------------------
THERMOCHEMISTRY AT 298.15K
--------------------------

Temperature         ... 298.15 K
Pressure            ... 1.00 atm
Total Mass          ... 287.36 AMU

Throughout the following assumptions are being made:
  (1) The electronic state is orbitally nondegenerate
  (2) There are no thermally accessible electronically excited states
  (3) Hindered rotations indicated by low frequency modes are not
      treated as such but are treated as vibrations and this may
      cause some error
  (4) All equations used are the standard statistical mechanics
      equations for an ideal gas
  (5) All vibrations are strictly harmonic

freq.      22.94  E(vib)   ...       0.56
freq.      37.35  E(vib)   ...       0.54
freq.      60.33  E(vib)   ...       0.51
freq.      69.94  E(vib)   ...       0.50
freq.      72.02  E(vib)   ...       0.50
freq.      83.20  E(vib)   ...       0.48
freq.     107.27  E(vib)   ...       0.45
freq.     113.74  E(vib)   ...       0.44
freq.     135.87  E(vib)   ...       0.42
freq.     159.25  E(vib)   ...       0.39
freq.     167.88  E(vib)   ...       0.38
freq.     185.84  E(vib)   ...       0.37
freq.     220.79  E(vib)   ...       0.33
freq.     228.46  E(vib)   ...       0.32
freq.     239.07  E(vib)   ...       0.32
freq.     254.92  E(vib)   ...       0.30
freq.     274.40  E(vib)   ...       0.28
freq.     344.77  E(vib)   ...       0.23
freq.     352.71  E(vib)   ...       0.22
freq.     378.90  E(vib)   ...       0.21
freq.     388.30  E(vib)   ...       0.20
freq.     430.26  E(vib)   ...       0.18
freq.     434.94  E(vib)   ...       0.17
freq.     445.44  E(vib)   ...       0.17
freq.     459.92  E(vib)   ...       0.16
freq.     470.07  E(vib)   ...       0.16
freq.     495.65  E(vib)   ...       0.14
freq.     550.42  E(vib)   ...       0.12
freq.     575.29  E(vib)   ...       0.11
freq.     588.09  E(vib)   ...       0.10
freq.     592.42  E(vib)   ...       0.10
freq.     600.74  E(vib)   ...       0.10
freq.     626.68  E(vib)   ...       0.09
freq.     652.51  E(vib)   ...       0.08
freq.     701.33  E(vib)   ...       0.07
freq.     748.00  E(vib)   ...       0.06
freq.     756.81  E(vib)   ...       0.06
freq.     760.82  E(vib)   ...       0.06
freq.     770.53  E(vib)   ...       0.05
freq.     781.39  E(vib)   ...       0.05
freq.     794.71  E(vib)   ...       0.05
freq.     816.05  E(vib)   ...       0.05
freq.     846.15  E(vib)   ...       0.04
freq.     863.13  E(vib)   ...       0.04
freq.     889.55  E(vib)   ...       0.04
freq.     929.72  E(vib)   ...       0.03
freq.     960.73  E(vib)   ...       0.03
freq.     970.39  E(vib)   ...       0.03
freq.    1002.99  E(vib)   ...       0.02
freq.    1010.40  E(vib)   ...       0.02
freq.    1025.35  E(vib)   ...       0.02
freq.    1032.90  E(vib)   ...       0.02
freq.    1038.48  E(vib)   ...       0.02
freq.    1062.02  E(vib)   ...       0.02
freq.    1078.84  E(vib)   ...       0.02
freq.    1090.71  E(vib)   ...       0.02
freq.    1108.73  E(vib)   ...       0.02
freq.    1111.20  E(vib)   ...       0.01
freq.    1135.28  E(vib)   ...       0.01
freq.    1151.56  E(vib)   ...       0.01
freq.    1168.07  E(vib)   ...       0.01
freq.    1178.71  E(vib)   ...       0.01
freq.    1184.57  E(vib)   ...       0.01
freq.    1218.42  E(vib)   ...       0.01
freq.    1249.72  E(vib)   ...       0.01
freq.    1259.72  E(vib)   ...       0.01
freq.    1281.16  E(vib)   ...       0.01
freq.    1287.31  E(vib)   ...       0.01
freq.    1295.41  E(vib)   ...       0.01
freq.    1322.84  E(vib)   ...       0.01
freq.    1341.72  E(vib)   ...       0.01
freq.    1346.31  E(vib)   ...       0.01
freq.    1373.20  E(vib)   ...       0.01
freq.    1386.97  E(vib)   ...       0.00
freq.    1397.35  E(vib)   ...       0.00
freq.    1409.36  E(vib)   ...       0.00
freq.    1415.49  E(vib)   ...       0.00
freq.    1442.40  E(vib)   ...       0.00
freq.    1457.45  E(vib)   ...       0.00
freq.    1465.79  E(vib)   ...       0.00
freq.    1474.45  E(vib)   ...       0.00
freq.    1483.94  E(vib)   ...       0.00
freq.    1490.33  E(vib)   ...       0.00
freq.    1496.89  E(vib)   ...       0.00
freq.    1500.77  E(vib)   ...       0.00
freq.    1505.80  E(vib)   ...       0.00
freq.    1509.80  E(vib)   ...       0.00
freq.    1511.93  E(vib)   ...       0.00
freq.    1518.72  E(vib)   ...       0.00
freq.    1530.59  E(vib)   ...       0.00
freq.    1533.97  E(vib)   ...       0.00
freq.    1536.58  E(vib)   ...       0.00
freq.    1556.19  E(vib)   ...       0.00
freq.    1602.82  E(vib)   ...       0.00
freq.    1629.74  E(vib)   ...       0.00
freq.    1675.55  E(vib)   ...       0.00
freq.    1707.35  E(vib)   ...       0.00
freq.    1713.96  E(vib)   ...       0.00
freq.    3033.09  E(vib)   ...       0.00
freq.    3037.95  E(vib)   ...       0.00
freq.    3054.61  E(vib)   ...       0.00
freq.    3064.91  E(vib)   ...       0.00
freq.    3083.24  E(vib)   ...       0.00
freq.    3089.14  E(vib)   ...       0.00
freq.    3096.11  E(vib)   ...       0.00
freq.    3101.41  E(vib)   ...       0.00
freq.    3117.86  E(vib)   ...       0.00
freq.    3130.40  E(vib)   ...       0.00
freq.    3143.13  E(vib)   ...       0.00
freq.    3166.17  E(vib)   ...       0.00
freq.    3171.37  E(vib)   ...       0.00
freq.    3179.34  E(vib)   ...       0.00
freq.    3188.25  E(vib)   ...       0.00
freq.    3191.67  E(vib)   ...       0.00
freq.    3192.94  E(vib)   ...       0.00
freq.    3197.93  E(vib)   ...       0.00
freq.    3208.19  E(vib)   ...       0.00
freq.    3269.33  E(vib)   ...       0.00
freq.    3652.57  E(vib)   ...       0.00

------------
INNER ENERGY
------------

The inner energy is: U= E(el) + E(ZPE) + E(vib) + E(rot) + E(trans)
    E(el)   - is the total energy from the electronic structure calculation
              = E(kin-el) + E(nuc-el) + E(el-el) + E(nuc-nuc)
    E(ZPE)  - the the zero temperature vibrational energy from the frequency calculation
    E(vib)  - the the finite temperature correction to E(ZPE) due to population
              of excited vibrational states
    E(rot)  - is the rotational thermal energy
    E(trans)- is the translational thermal energy

Summary of contributions to the inner energy U:
Electronic energy                ...   -936.59777092 Eh
Zero point energy                ...      0.35559725 Eh     223.14 kcal/mol
Thermal vibrational correction   ...      0.01705038 Eh      10.70 kcal/mol
Thermal rotational correction    ...      0.00141627 Eh       0.89 kcal/mol
Thermal translational correction ...      0.00141627 Eh       0.89 kcal/mol
-----------------------------------------------------------------------
Total thermal energy                   -936.22229074 Eh

Summary of corrections to the electronic energy:

Rotational constants in cm-1:     0.017084     0.005930     0.004821

                             ****ORCA TERMINATED NORMALLY****
TOTAL RUN TIME: 0 days 1 hours 12 minutes 34 seconds 87 msec
