                         Program Version 5.0.4 -  RELEASE  -
|  1> ! OPT FREQ B3LYP 6-31+G(d) D4 AUTOAUX
|  2> ! CPCM
|  3>
|  4> %cpcm
|  5> epsilon 9.8629
|  6> refrac  1.4295
|  7> end
|  8>
|  9> %PAL NPROCS 4 END
| 10>
| 11> %maxcore 3375
| 12>
| 13> *xyzfile -1 1 /users/fjb15167/WWenergy/structures/Ne.xyz
| 14>
| 15>                          ****END OF INPUT****
 Total Charge           Charge          ....   -1
 Multiplicity           Mult            ....    1
 Number of Electrons    NEL             ....  116
Dispersion correction           -0.055858703
FINAL SINGLE POINT ENERGY      -762.226671192728
Dispersion correction            ... Starting D4
Dispersion correction           -0.054157304
FINAL SINGLE POINT ENERGY      -762.228749429571
Dispersion correction            ... Starting D4
Dispersion correction           -0.054456995
FINAL SINGLE POINT ENERGY      -762.228936856238
Dispersion correction            ... Starting D4
FINAL SINGLE POINT ENERGY      -762.229271868628
FINAL SINGLE POINT ENERGY      -762.230305099790
FINAL SINGLE POINT ENERGY      -762.230804244195
FINAL SINGLE POINT ENERGY      -762.231085809051
FINAL SINGLE POINT ENERGY      -762.231380237518
FINAL SINGLE POINT ENERGY      -762.231599215536
FINAL SINGLE POINT ENERGY      -762.231746842456
FINAL SINGLE POINT ENERGY      -762.231940744321
FINAL SINGLE POINT ENERGY      -762.231921707414
FINAL SINGLE POINT ENERGY      -762.231949034551
FINAL SINGLE POINT ENERGY      -762.231972319965
FINAL SINGLE POINT ENERGY      -762.231976999552
FINAL SINGLE POINT ENERGY      -762.231989157296
FINAL SINGLE POINT ENERGY      -762.231999539831
Dispersion correction           -0.054337889
FINAL SINGLE POINT ENERGY      -762.232003125175
Dispersion correction            ... Starting D4
Dispersion correction           -0.054328641
FINAL SINGLE POINT ENERGY      -762.232007149236
Dispersion correction            ... Starting D4
                    ***********************HURRAY********************

CARTESIAN COORDINATES (ANGSTROEM)
---------------------------------
  C     -0.338556    2.975070    0.618742
  H     -1.048552    2.273021    1.066460
  H     -0.832475    3.445091   -0.240679
  H     -0.090923    3.750303    1.346385
  C      0.951959    2.301492    0.191521
  O      2.052491    2.778909    0.528206
  N      0.858146    1.171212   -0.562789
  C      2.075284    0.534524   -1.061733
  H      2.088428    0.586414   -2.155028
  H      2.931937    1.091062   -0.677515
  C     -0.427033    0.619677   -1.035060
  H     -1.133447    1.436001   -1.184815
  H     -0.244582    0.183867   -2.022185
  C     -1.030324   -0.430478   -0.097067
  H     -0.384339   -1.312099   -0.031078
  H     -1.098520   -0.028562    0.922438
  C      2.182782   -0.955881   -0.711869
  N      2.275565   -1.310520    0.593031
  O      2.184121   -1.790716   -1.634939
  C      2.267533   -0.371832    1.712079
  H      1.261793   -0.288544    2.144809
  H      2.948985   -0.748535    2.482144
  H      2.607219    0.617016    1.408651
  C      2.214163   -2.719527    0.971927
  H      1.299016   -2.908720    1.548780
  H      2.212684   -3.338377    0.075934
  H      3.079819   -2.973764    1.594732
  C     -2.441878   -0.908456   -0.509275
  O     -3.011286   -0.322517   -1.476057
  O     -2.923011   -1.859132    0.176251

 Multiplicity           Mult            ....    1
 Number of Electrons    NEL             ....  116
 Basis Dimension        Dim             ....  300

ORBITAL ENERGIES
----------------

  NO   OCC          E(Eh)            E(eV)
   0   2.0000     -19.113613      -520.1079
   1   2.0000     -19.113533      -520.1057
   2   2.0000     -19.073436      -519.0146
   3   2.0000     -19.070832      -518.9437
   4   2.0000     -14.362542      -390.8246
   5   2.0000     -14.361091      -390.7852
   6   2.0000     -10.283423      -279.8262
   7   2.0000     -10.282606      -279.8039
   8   2.0000     -10.251616      -278.9607
   9   2.0000     -10.210840      -277.8511
  10   2.0000     -10.199379      -277.5392
  11   2.0000     -10.197511      -277.4884
  12   2.0000     -10.194423      -277.4043
  13   2.0000     -10.169869      -276.7362
  14   2.0000     -10.157507      -276.3998
  15   2.0000      -1.033240       -28.1159
  16   2.0000      -1.027094       -27.9486
  17   2.0000      -1.000352       -27.2210
  18   2.0000      -0.934053       -25.4169
  19   2.0000      -0.925853       -25.1937
  20   2.0000      -0.912167       -24.8213
  21   2.0000      -0.761762       -20.7286
  22   2.0000      -0.744281       -20.2529
  23   2.0000      -0.715745       -19.4764
  24   2.0000      -0.704837       -19.1796
  25   2.0000      -0.671180       -18.2637
  26   2.0000      -0.638994       -17.3879
  27   2.0000      -0.549674       -14.9574
  28   2.0000      -0.534474       -14.5438
  29   2.0000      -0.508209       -13.8291
  30   2.0000      -0.486171       -13.2294
  31   2.0000      -0.478261       -13.0142
  32   2.0000      -0.472787       -12.8652
  33   2.0000      -0.463369       -12.6089
  34   2.0000      -0.452313       -12.3081
  35   2.0000      -0.443217       -12.0605
  36   2.0000      -0.430965       -11.7272
  37   2.0000      -0.412931       -11.2364
  38   2.0000      -0.405914       -11.0455
  39   2.0000      -0.402528       -10.9533
  40   2.0000      -0.395386       -10.7590
  41   2.0000      -0.393268       -10.7014
  42   2.0000      -0.391745       -10.6599
  43   2.0000      -0.388328       -10.5669
  44   2.0000      -0.379569       -10.3286
  45   2.0000      -0.372864       -10.1461
  46   2.0000      -0.367515       -10.0006
  47   2.0000      -0.358503        -9.7554
  48   2.0000      -0.354889        -9.6570
  49   2.0000      -0.343941        -9.3591
  50   2.0000      -0.322276        -8.7696
  51   2.0000      -0.262234        -7.1358
  52   2.0000      -0.255463        -6.9515
  53   2.0000      -0.243480        -6.6254
  54   2.0000      -0.239338        -6.5127
  55   2.0000      -0.232622        -6.3300
  56   2.0000      -0.217912        -5.9297
  57   2.0000      -0.213225        -5.8022
  58   0.0000       0.009199         0.2503
  59   0.0000       0.017364         0.4725
  60   0.0000       0.022032         0.5995
  61   0.0000       0.027424         0.7463
  62   0.0000       0.033029         0.8988

MULLIKEN ATOMIC CHARGES
-----------------------
   0 C :   -0.938064
   1 H :    0.251773
   2 H :    0.257506
   3 H :    0.238950
   4 C :    0.705292
   5 O :   -0.598822
   6 N :    0.023705
   7 C :   -0.590861
   8 H :    0.247762
   9 H :    0.267893
  10 C :   -0.811089
  11 H :    0.239028
  12 H :    0.242006
  13 C :   -0.228648
  14 H :    0.239447
  15 H :    0.227633
  16 C :    0.476010
  17 N :   -0.068077
  18 O :   -0.588501
  19 C :   -0.453001
  20 H :    0.237789
  21 H :    0.221805
  22 H :    0.239107
  23 C :   -0.586923
  24 H :    0.230380
  25 H :    0.245924
  26 H :    0.225352
  27 C :    0.470439
  28 O :   -0.705119
  29 O :   -0.718696
Sum of atomic charges:   -1.0000000

LOEWDIN ATOMIC CHARGES
----------------------
   0 C :   -0.467166
   1 H :    0.224685
   2 H :    0.224885
   3 H :    0.215815
   4 C :    0.098380
   5 O :   -0.485488
   6 N :   -0.314339
   7 C :   -0.213402
   8 H :    0.238900
   9 H :    0.259814
  10 C :   -0.244533
  11 H :    0.232548
  12 H :    0.232590
  13 C :   -0.352538
  14 H :    0.232319
  15 H :    0.226496
  16 C :    0.091974
  17 N :   -0.327226
  18 O :   -0.461459
  19 C :   -0.355682
  20 H :    0.220027
  21 H :    0.208460
  22 H :    0.238332
  23 C :   -0.358871
  24 H :    0.212717
  25 H :    0.232581
  26 H :    0.206520
  27 C :    0.127592
  28 O :   -0.566276
  29 O :   -0.577654

  Mayer bond orders larger than 0.100000
B(  0-C ,  1-H ) :   0.9404 B(  0-C ,  2-H ) :   0.9501 B(  0-C ,  3-H ) :   0.9976
B(  0-C ,  4-C ) :   0.4735 B(  0-C ,  6-N ) :  -0.1250 B(  4-C ,  5-O ) :   1.7317
B(  4-C ,  6-N ) :   1.2103 B(  6-N ,  7-C ) :   0.7287 B(  6-N , 10-C ) :   0.6275
B(  7-C ,  8-H ) :   1.0464 B(  7-C ,  9-H ) :   0.9767 B(  7-C , 16-C ) :   0.6001
B(  7-C , 17-N ) :  -0.1773 B(  7-C , 18-O ) :  -0.2304 B(  8-H , 16-C ) :  -0.1224
B( 10-C , 11-H ) :   1.0473 B( 10-C , 12-H ) :   1.0357 B( 10-C , 13-C ) :   0.2579
B( 11-H , 13-C ) :  -0.1070 B( 12-H , 13-C ) :  -0.1190 B( 13-C , 14-H ) :   0.8612
B( 13-C , 15-H ) :   0.9101 B( 13-C , 27-C ) :   0.9750 B( 13-C , 28-O ) :  -0.1483
B( 16-C , 17-N ) :   1.3434 B( 16-C , 18-O ) :   1.9686 B( 17-N , 19-C ) :   0.8350
B( 17-N , 23-C ) :   0.8116 B( 19-C , 20-H ) :   0.9230 B( 19-C , 21-H ) :   0.9339
B( 19-C , 22-H ) :   0.9193 B( 23-C , 24-H ) :   0.9453 B( 23-C , 25-H ) :   0.9583
B( 23-C , 26-H ) :   0.9343 B( 27-C , 28-O ) :   1.5548 B( 27-C , 29-O ) :   1.4527

Dispersion correction           -0.054321307
FINAL SINGLE POINT ENERGY      -762.232008601196

DIPOLE MOMENT
-------------
                                X             Y             Z
Electronic contribution:     -1.29713      -0.13019      -5.62762
Nuclear contribution   :      6.44394       2.09574       7.87912
                        -----------------------------------------
Total Dipole Moment    :      5.14681       1.96555       2.25150
                        -----------------------------------------
Magnitude (a.u.)       :      5.95166
Magnitude (Debye)      :     15.12792

Dispersion correction in the Hessian             ... Starting D4

VIBRATIONAL FREQUENCIES
-----------------------

Scaling factor for frequencies =  1.000000000  (already applied!)

   0:         0.00 cm**-1
   1:         0.00 cm**-1
   2:         0.00 cm**-1
   3:         0.00 cm**-1
   4:         0.00 cm**-1
   5:         0.00 cm**-1
   6:        30.73 cm**-1
   7:        41.95 cm**-1
   8:        46.49 cm**-1
   9:        51.21 cm**-1
  10:        71.67 cm**-1
  11:        79.50 cm**-1
  12:        99.95 cm**-1
  13:       116.81 cm**-1
  14:       144.76 cm**-1
  15:       163.51 cm**-1
  16:       173.04 cm**-1
  17:       193.16 cm**-1
  18:       227.94 cm**-1
  19:       261.98 cm**-1
  20:       278.62 cm**-1
  21:       344.81 cm**-1
  22:       356.31 cm**-1
  23:       386.41 cm**-1
  24:       421.96 cm**-1
  25:       451.38 cm**-1
  26:       481.89 cm**-1
  27:       506.49 cm**-1
  28:       573.44 cm**-1
  29:       585.78 cm**-1
  30:       599.70 cm**-1
  31:       620.40 cm**-1
  32:       675.11 cm**-1
  33:       711.81 cm**-1
  34:       757.36 cm**-1
  35:       791.78 cm**-1
  36:       829.58 cm**-1
  37:       919.85 cm**-1
  38:       954.50 cm**-1
  39:       998.32 cm**-1
  40:      1010.98 cm**-1
  41:      1044.43 cm**-1
  42:      1061.19 cm**-1
  43:      1070.54 cm**-1
  44:      1084.86 cm**-1
  45:      1107.08 cm**-1
  46:      1130.23 cm**-1
  47:      1168.16 cm**-1
  48:      1177.68 cm**-1
  49:      1213.62 cm**-1
  50:      1249.11 cm**-1
  51:      1279.11 cm**-1
  52:      1286.00 cm**-1
  53:      1298.02 cm**-1
  54:      1332.97 cm**-1
  55:      1369.31 cm**-1
  56:      1391.26 cm**-1
  57:      1399.08 cm**-1
  58:      1412.12 cm**-1
  59:      1439.28 cm**-1
  60:      1453.73 cm**-1
  61:      1472.62 cm**-1
  62:      1477.20 cm**-1
  63:      1480.52 cm**-1
  64:      1484.84 cm**-1
  65:      1497.24 cm**-1
  66:      1499.80 cm**-1
  67:      1501.84 cm**-1
  68:      1510.39 cm**-1
  69:      1522.75 cm**-1
  70:      1524.59 cm**-1
  71:      1547.16 cm**-1
  72:      1589.12 cm**-1
  73:      1652.91 cm**-1
  74:      1664.24 cm**-1
  75:      3037.48 cm**-1
  76:      3043.14 cm**-1
  77:      3053.71 cm**-1
  78:      3061.51 cm**-1
  79:      3082.39 cm**-1
  80:      3091.30 cm**-1
  81:      3093.74 cm**-1
  82:      3103.14 cm**-1
  83:      3105.71 cm**-1
  84:      3127.54 cm**-1
  85:      3148.65 cm**-1
  86:      3159.73 cm**-1
  87:      3164.54 cm**-1
  88:      3186.81 cm**-1
  89:      3189.84 cm**-1

IR SPECTRUM
-----------

 Mode   freq       eps      Int      T**2         TX        TY        TZ
       cm**-1   L/(mol*cm) km/mol    a.u.
----------------------------------------------------------------------------
  6:     30.73   0.000171    0.86  0.001735  ( 0.014072 -0.036514 -0.014289)
  7:     41.95   0.002742   13.86  0.020394  ( 0.014683 -0.120235 -0.075640)
  8:     46.49   0.002328   11.76  0.015625  ( 0.106258 -0.060481 -0.026011)
  9:     51.21   0.001211    6.12  0.007382  (-0.053439 -0.031101 -0.059656)
 10:     71.67   0.000525    2.66  0.002288  (-0.000473 -0.024888 -0.040845)
 11:     79.50   0.001986   10.04  0.007797  (-0.065494  0.030230  0.050929)
 12:     99.95   0.005709   28.85  0.017823  ( 0.017281 -0.095909  0.091245)
 13:    116.81   0.000274    1.39  0.000733  (-0.014127  0.021824  0.007576)
 14:    144.76   0.000752    3.80  0.001621  (-0.006180  0.036666 -0.015439)
 15:    163.51   0.000081    0.41  0.000155  ( 0.011050  0.005692  0.000944)
 16:    173.04   0.000088    0.45  0.000159  ( 0.011442 -0.000958 -0.005236)
 17:    193.16   0.000601    3.04  0.000972  ( 0.028685  0.009984  0.007000)
 18:    227.94   0.001002    5.07  0.001372  (-0.025622 -0.026694  0.001837)
 19:    261.98   0.003276   16.55  0.003902  (-0.061848  0.006754 -0.005565)
 20:    278.62   0.000392    1.98  0.000440  ( 0.010474 -0.007063  0.016734)
 21:    344.81   0.002574   13.01  0.002330  (-0.012142 -0.003751  0.046563)
 22:    356.31   0.001488    7.52  0.001303  ( 0.023453 -0.026010  0.008741)
 23:    386.41   0.001432    7.24  0.001156  (-0.006719 -0.019394  0.027113)
 24:    421.96   0.000890    4.50  0.000658  (-0.003227 -0.025179  0.003713)
 25:    451.38   0.003276   16.56  0.002265  ( 0.029821  0.034697  0.013103)
 26:    481.89   0.002408   12.17  0.001559  ( 0.003021 -0.029504  0.026067)
 27:    506.49   0.005728   28.95  0.003529  ( 0.055881 -0.006964 -0.018925)
 28:    573.44   0.004909   24.81  0.002671  (-0.011245 -0.050064  0.006202)
 29:    585.78   0.001006    5.09  0.000536  ( 0.004715 -0.014897 -0.017087)
 30:    599.70   0.003284   16.59  0.001709  ( 0.025213  0.031642  0.008476)
 31:    620.40   0.005020   25.37  0.002525  ( 0.023460  0.002645  0.044358)
 32:    675.11   0.003984   20.13  0.001842  ( 0.038396  0.012578 -0.014459)
 33:    711.81   0.004870   24.61  0.002135  (-0.037631 -0.007056 -0.025870)
 34:    757.36   0.003277   16.56  0.001350  ( 0.015049 -0.019668  0.027145)
 35:    791.78   0.003610   18.24  0.001423  (-0.027037  0.026073  0.003463)
 36:    829.58   0.004183   21.14  0.001574  (-0.011923  0.015456  0.034533)
 37:    919.85   0.006048   30.57  0.002052  ( 0.033347  0.026012  0.016228)
 38:    954.50   0.003214   16.24  0.001051  (-0.022184 -0.019666 -0.013112)
 39:    998.32   0.008563   43.28  0.002677  ( 0.007381  0.026261 -0.043962)
 40:   1010.98   0.007302   36.90  0.002254  ( 0.026013  0.038810  0.008419)
 41:   1044.43   0.004779   24.15  0.001428  (-0.003771  0.031771  0.020109)
 42:   1061.19   0.001361    6.88  0.000400  (-0.004509  0.010708 -0.016286)
 43:   1070.54   0.000871    4.40  0.000254  ( 0.007448  0.005761 -0.012859)
 44:   1084.86   0.003371   17.03  0.000970  ( 0.003343  0.028152  0.012878)
 45:   1107.08   0.003693   18.66  0.001041  (-0.009512 -0.008044 -0.029763)
 46:   1130.23   0.000440    2.22  0.000121  (-0.003252  0.009278  0.004980)
 47:   1168.16   0.010260   51.85  0.002741  ( 0.025305 -0.010034  0.044719)
 48:   1177.68   0.000568    2.87  0.000150  ( 0.000098  0.005420  0.011001)
 49:   1213.62   0.011960   60.44  0.003075  (-0.022184  0.003588  0.050698)
 50:   1249.11   0.016369   82.72  0.004089  (-0.014801 -0.057628 -0.023437)
 51:   1279.11   0.009847   49.76  0.002402  ( 0.006697  0.036434 -0.032093)
 52:   1286.00   0.026850  135.69  0.006515  ( 0.028041 -0.062977 -0.041988)
 53:   1298.02   0.010000   50.54  0.002404  ( 0.004026  0.046317 -0.015582)
 54:   1332.97   0.006535   33.03  0.001530  (-0.022884 -0.031681 -0.001600)
 55:   1369.31   0.002244   11.34  0.000511  ( 0.012044  0.016612  0.009507)
 56:   1391.26   0.082762  418.25  0.018564  ( 0.122150  0.047111  0.037735)
 57:   1399.08   0.012837   64.87  0.002863  ( 0.040705  0.023665  0.025423)
 58:   1412.12   0.002606   13.17  0.000576  (-0.012344  0.010828  0.017499)
 59:   1439.28   0.016564   83.71  0.003591  ( 0.008330 -0.021495  0.055317)
 60:   1453.73   0.012470   63.02  0.002677  ( 0.009748 -0.040989  0.030029)
 61:   1472.62   0.042680  215.69  0.009044  (-0.006571 -0.084859 -0.042427)
 62:   1477.20   0.004994   25.24  0.001055  (-0.026603 -0.018627 -0.000577)
 63:   1480.52   0.003426   17.31  0.000722  (-0.012448  0.023399 -0.004432)
 64:   1484.84   0.010687   54.01  0.002246  (-0.027201  0.038777  0.001553)
 65:   1497.24   0.003186   16.10  0.000664  ( 0.013808 -0.019836 -0.008935)
 66:   1499.80   0.006284   31.75  0.001307  (-0.007273  0.006907  0.034740)
 67:   1501.84   0.001566    7.92  0.000325  ( 0.016598  0.002540 -0.006596)
 68:   1510.39   0.001668    8.43  0.000345  (-0.015781  0.005269 -0.008237)
 69:   1522.75   0.009616   48.59  0.001971  (-0.043744 -0.007499  0.000867)
 70:   1524.59   0.006661   33.66  0.001363  ( 0.013858 -0.001759 -0.034181)
 71:   1547.16   0.017750   89.70  0.003580  (-0.000656  0.049597 -0.033466)
 72:   1589.12   0.223705  1130.51  0.043930  (-0.004068  0.143428 -0.152781)
 73:   1652.91   0.168938  853.75  0.031895  ( 0.111517  0.106965  0.089539)
 74:   1664.24   0.139642  705.69  0.026184  (-0.017946  0.047459  0.153655)
 75:   3037.48   0.006873   34.73  0.000706  (-0.000240  0.026432 -0.002720)
 76:   3043.14   0.018006   91.00  0.001846  (-0.010513 -0.007664  0.040954)
 77:   3053.71   0.004643   23.47  0.000475  (-0.001057  0.003209 -0.021519)
 78:   3061.51   0.000982    4.96  0.000100  ( 0.007665 -0.005097 -0.003915)
 79:   3082.39   0.005150   26.03  0.000521  ( 0.012331 -0.007268 -0.017792)
 80:   3091.30   0.008994   45.45  0.000908  (-0.005169 -0.000366 -0.029683)
 81:   3093.74   0.010731   54.23  0.001082  (-0.031044  0.006136 -0.009006)
 82:   3103.14   0.005669   28.65  0.000570  (-0.020016  0.003745 -0.012468)
 83:   3105.71   0.005336   26.97  0.000536  ( 0.009414 -0.019213 -0.008855)
 84:   3127.54   0.001754    8.87  0.000175  ( 0.004363  0.003782 -0.011905)
 85:   3148.65   0.002416   12.21  0.000239  ( 0.004744 -0.013560  0.005754)
 86:   3159.73   0.005702   28.82  0.000563  (-0.007287  0.021665  0.006379)
 87:   3164.54   0.001865    9.42  0.000184  (-0.011826 -0.003050 -0.005893)
 88:   3186.81   0.000515    2.60  0.000050  ( 0.006722 -0.001282 -0.001903)
 89:   3189.84   0.000776    3.92  0.000076  (-0.001808 -0.007908 -0.003185)

--------------------------
THERMOCHEMISTRY AT 298.15K
--------------------------

Temperature         ... 298.15 K
Pressure            ... 1.00 atm
Total Mass          ... 215.23 AMU

Throughout the following assumptions are being made:
  (1) The electronic state is orbitally nondegenerate
  (2) There are no thermally accessible electronically excited states
  (3) Hindered rotations indicated by low frequency modes are not
      treated as such but are treated as vibrations and this may
      cause some error
  (4) All equations used are the standard statistical mechanics
      equations for an ideal gas
  (5) All vibrations are strictly harmonic

freq.      30.73  E(vib)   ...       0.55
freq.      41.95  E(vib)   ...       0.53
freq.      46.49  E(vib)   ...       0.53
freq.      51.21  E(vib)   ...       0.52
freq.      71.67  E(vib)   ...       0.50
freq.      79.50  E(vib)   ...       0.49
freq.      99.95  E(vib)   ...       0.46
freq.     116.81  E(vib)   ...       0.44
freq.     144.76  E(vib)   ...       0.41
freq.     163.51  E(vib)   ...       0.39
freq.     173.04  E(vib)   ...       0.38
freq.     193.16  E(vib)   ...       0.36
freq.     227.94  E(vib)   ...       0.33
freq.     261.98  E(vib)   ...       0.29
freq.     278.62  E(vib)   ...       0.28
freq.     344.81  E(vib)   ...       0.23
freq.     356.31  E(vib)   ...       0.22
freq.     386.41  E(vib)   ...       0.20
freq.     421.96  E(vib)   ...       0.18
freq.     451.38  E(vib)   ...       0.16
freq.     481.89  E(vib)   ...       0.15
freq.     506.49  E(vib)   ...       0.14
freq.     573.44  E(vib)   ...       0.11
freq.     585.78  E(vib)   ...       0.11
freq.     599.70  E(vib)   ...       0.10
freq.     620.40  E(vib)   ...       0.09
freq.     675.11  E(vib)   ...       0.08
freq.     711.81  E(vib)   ...       0.07
freq.     757.36  E(vib)   ...       0.06
freq.     791.78  E(vib)   ...       0.05
freq.     829.58  E(vib)   ...       0.04
freq.     919.85  E(vib)   ...       0.03
freq.     954.50  E(vib)   ...       0.03
freq.     998.32  E(vib)   ...       0.02
freq.    1010.98  E(vib)   ...       0.02
freq.    1044.43  E(vib)   ...       0.02
freq.    1061.19  E(vib)   ...       0.02
freq.    1070.54  E(vib)   ...       0.02
freq.    1084.86  E(vib)   ...       0.02
freq.    1107.08  E(vib)   ...       0.02
freq.    1130.23  E(vib)   ...       0.01
freq.    1168.16  E(vib)   ...       0.01
freq.    1177.68  E(vib)   ...       0.01
freq.    1213.62  E(vib)   ...       0.01
freq.    1249.11  E(vib)   ...       0.01
freq.    1279.11  E(vib)   ...       0.01
freq.    1286.00  E(vib)   ...       0.01
freq.    1298.02  E(vib)   ...       0.01
freq.    1332.97  E(vib)   ...       0.01
freq.    1369.31  E(vib)   ...       0.01
freq.    1391.26  E(vib)   ...       0.00
freq.    1399.08  E(vib)   ...       0.00
freq.    1412.12  E(vib)   ...       0.00
freq.    1439.28  E(vib)   ...       0.00
freq.    1453.73  E(vib)   ...       0.00
freq.    1472.62  E(vib)   ...       0.00
freq.    1477.20  E(vib)   ...       0.00
freq.    1480.52  E(vib)   ...       0.00
freq.    1484.84  E(vib)   ...       0.00
freq.    1497.24  E(vib)   ...       0.00
freq.    1499.80  E(vib)   ...       0.00
freq.    1501.84  E(vib)   ...       0.00
freq.    1510.39  E(vib)   ...       0.00
freq.    1522.75  E(vib)   ...       0.00
freq.    1524.59  E(vib)   ...       0.00
freq.    1547.16  E(vib)   ...       0.00
freq.    1589.12  E(vib)   ...       0.00
freq.    1652.91  E(vib)   ...       0.00
freq.    1664.24  E(vib)   ...       0.00
freq.    3037.48  E(vib)   ...       0.00
freq.    3043.14  E(vib)   ...       0.00
freq.    3053.71  E(vib)   ...       0.00
freq.    3061.51  E(vib)   ...       0.00
freq.    3082.39  E(vib)   ...       0.00
freq.    3091.30  E(vib)   ...       0.00
freq.    3093.74  E(vib)   ...       0.00
freq.    3103.14  E(vib)   ...       0.00
freq.    3105.71  E(vib)   ...       0.00
freq.    3127.54  E(vib)   ...       0.00
freq.    3148.65  E(vib)   ...       0.00
freq.    3159.73  E(vib)   ...       0.00
freq.    3164.54  E(vib)   ...       0.00
freq.    3186.81  E(vib)   ...       0.00
freq.    3189.84  E(vib)   ...       0.00

------------
INNER ENERGY
------------

The inner energy is: U= E(el) + E(ZPE) + E(vib) + E(rot) + E(trans)
    E(el)   - is the total energy from the electronic structure calculation
              = E(kin-el) + E(nuc-el) + E(el-el) + E(nuc-nuc)
    E(ZPE)  - the the zero temperature vibrational energy from the frequency calculation
    E(vib)  - the the finite temperature correction to E(ZPE) due to population
              of excited vibrational states
    E(rot)  - is the rotational thermal energy
    E(trans)- is the translational thermal energy

Summary of contributions to the inner energy U:
Electronic energy                ...   -762.23200860 Eh
Zero point energy                ...      0.24604530 Eh     154.40 kcal/mol
Thermal vibrational correction   ...      0.01401304 Eh       8.79 kcal/mol
Thermal rotational correction    ...      0.00141627 Eh       0.89 kcal/mol
Thermal translational correction ...      0.00141627 Eh       0.89 kcal/mol
-----------------------------------------------------------------------
Total thermal energy                   -761.96911772 Eh

Summary of corrections to the electronic energy:
(perhaps to be used in another calculation)
Total thermal correction                  0.01684558 Eh      10.57 kcal/mol
Non-thermal (ZPE) correction              0.24604530 Eh     154.40 kcal/mol
-----------------------------------------------------------------------
Total correction                          0.26289088 Eh     164.97 kcal/mol

--------
ENTHALPY
--------

The enthalpy is H = U + kB*T
                kB is Boltzmann's constant
Total free energy                 ...   -761.96911772 Eh
Thermal Enthalpy correction       ...      0.00094421 Eh       0.59 kcal/mol
-----------------------------------------------------------------------
Total Enthalpy                    ...   -761.96817352 Eh

Note: Only C1 symmetry has been detected, increase convergence thresholds
      if your molecule has a higher symmetry. Symmetry factor of 1.0 is
      used for the rotational entropy correction.

Note: Rotational entropy computed according to Herzberg
Infrared and Raman Spectra, Chapter V,1, Van Nostrand Reinhold, 1945
Point Group:  C1, Symmetry Number:   1
Rotational constants in cm-1:     0.020668     0.015957     0.011251

Vibrational entropy computed according to the QRRHO of S. Grimme
Chem.Eur.J. 2012 18 9955

-------
ENTROPY

                             ****ORCA TERMINATED NORMALLY****
TOTAL RUN TIME: 0 days 1 hours 40 minutes 40 seconds 767 msec
