                         Program Version 5.0.4 -  RELEASE  -
|  1> ! OPT FREQ B3LYP 6-31G(d) D4 AUTOAUX
|  2> ! CPCM
|  3>
|  4> %cpcm
|  5> epsilon 9.8629
|  6> refrac  1.4295
|  7> end
|  8>
|  9> %PAL NPROCS 4 END
| 10>
| 11> %maxcore 3375
| 12>
| 13> *xyzfile 0 1 /users/fjb15167/WWenergy/structures/Nfe.xyz
| 14>
| 15>                          ****END OF INPUT****
 Total Charge           Charge          ....    0
 Multiplicity           Mult            ....    1
 Number of Electrons    NEL             ....  134
Dispersion correction           -0.071779314
FINAL SINGLE POINT ENERGY      -805.088251260895
Dispersion correction            ... Starting D4
Dispersion correction           -0.070901986
FINAL SINGLE POINT ENERGY      -805.088662755606
Dispersion correction            ... Starting D4
Dispersion correction           -0.071288675
FINAL SINGLE POINT ENERGY      -805.088857562263
Dispersion correction            ... Starting D4
FINAL SINGLE POINT ENERGY      -805.088901534503
FINAL SINGLE POINT ENERGY      -805.088925566241
Dispersion correction           -0.071295083
FINAL SINGLE POINT ENERGY      -805.088923179640
Dispersion correction            ... Starting D4
Dispersion correction           -0.071300706
FINAL SINGLE POINT ENERGY      -805.088924919804
Dispersion correction            ... Starting D4
                    ***********************HURRAY********************

CARTESIAN COORDINATES (ANGSTROEM)
---------------------------------
  C     -1.495534    3.207205   -0.379829
  H     -0.743129    2.933717   -1.125436
  H     -0.987243    3.760008    0.419233
  H     -2.239315    3.858791   -0.841082
  C     -2.219532    1.996407    0.180617
  O     -3.455646    1.938342    0.177840
  N     -1.451509    0.986911    0.692734
  C     -2.100705   -0.151539    1.340775
  H     -1.815260   -0.179099    2.397141
  H     -3.178491   -0.005734    1.271091
  C      0.014051    0.998785    0.712949
  H      0.376486    2.016746    0.877239
  H      0.326249    0.407243    1.578647
  C      0.661547    0.410499   -0.559392
  H      0.192230   -0.550743   -0.788574
  H      0.469143    1.073636   -1.410160
  C      2.146167    0.220479   -0.362254
  C      2.621307   -0.915333    0.309987
  C      3.066792    1.183776   -0.792964
  C      3.986775   -1.085937    0.541967
  H      1.909514   -1.664517    0.650934
  C      4.434729    1.016408   -0.562538
  H      2.708312    2.067822   -1.316194
  C      4.898366   -0.119519    0.105504
  H      4.340566   -1.973675    1.060233
  H      5.137227    1.771323   -0.906812
  H      5.962396   -0.252364    0.283425
  C     -1.648751   -1.497485    0.759376
  N     -2.091939   -1.848593   -0.476804
  O     -0.882992   -2.211215    1.421716
  C     -2.895704   -1.003709   -1.352682
  H     -2.274845   -0.579722   -2.153856
  H     -3.679830   -1.614833   -1.813553
  H     -3.366506   -0.186663   -0.809183
  C     -1.573461   -3.064241   -1.094594
  H     -0.818662   -2.817828   -1.854207
  H     -1.119939   -3.688923   -0.326848
  H     -2.392865   -3.605424   -1.579444

 Multiplicity           Mult            ....    1
 Number of Electrons    NEL             ....  134
 Basis Dimension        Dim             ....  292

ORBITAL ENERGIES
----------------

  NO   OCC          E(Eh)            E(eV)
   0   2.0000     -19.109620      -519.9992
   1   2.0000     -19.108619      -519.9720
   2   2.0000     -14.361418      -390.7941
   3   2.0000     -14.360581      -390.7713
   4   2.0000     -10.284010      -279.8422
   5   2.0000     -10.280484      -279.7462
   6   2.0000     -10.213218      -277.9158
   7   2.0000     -10.211801      -277.8772
   8   2.0000     -10.200145      -277.5601
   9   2.0000     -10.196978      -277.4739
  10   2.0000     -10.186066      -277.1769
  11   2.0000     -10.177955      -276.9562
  12   2.0000     -10.177711      -276.9496
  13   2.0000     -10.177465      -276.9429
  14   2.0000     -10.176662      -276.9211
  15   2.0000     -10.176402      -276.9140
  16   2.0000     -10.175172      -276.8805
  17   2.0000     -10.174252      -276.8555
  18   2.0000      -1.033016       -28.1098
  19   2.0000      -1.026208       -27.9245
  20   2.0000      -0.935195       -25.4480
  21   2.0000      -0.927549       -25.2399
  22   2.0000      -0.849700       -23.1215
  23   2.0000      -0.783162       -21.3109
  24   2.0000      -0.758288       -20.6341
  25   2.0000      -0.736815       -20.0497
  26   2.0000      -0.724924       -19.7262
  27   2.0000      -0.714733       -19.4489
  28   2.0000      -0.705157       -19.1883
  29   2.0000      -0.671643       -18.2763
  30   2.0000      -0.643990       -17.5238
  31   2.0000      -0.598023       -16.2730
  32   2.0000      -0.574376       -15.6296
  33   2.0000      -0.552075       -15.0227
  34   2.0000      -0.537935       -14.6380
  35   2.0000      -0.513011       -13.9597
  36   2.0000      -0.503044       -13.6885
  37   2.0000      -0.484942       -13.1959
  38   2.0000      -0.478483       -13.0202
  39   2.0000      -0.465508       -12.6671
  40   2.0000      -0.457146       -12.4396
  41   2.0000      -0.453744       -12.3470
  42   2.0000      -0.452011       -12.2999
  43   2.0000      -0.441582       -12.0161
  44   2.0000      -0.415877       -11.3166
  45   2.0000      -0.415273       -11.3002
  46   2.0000      -0.409361       -11.1393
  47   2.0000      -0.404855       -11.0167
  48   2.0000      -0.403002       -10.9662
  49   2.0000      -0.396139       -10.7795
  50   2.0000      -0.395061       -10.7502
  51   2.0000      -0.391774       -10.6607
  52   2.0000      -0.390090       -10.6149
  53   2.0000      -0.380802       -10.3621
  54   2.0000      -0.374105       -10.1799
  55   2.0000      -0.364479        -9.9180
  56   2.0000      -0.353721        -9.6252
  57   2.0000      -0.349611        -9.5134
  58   2.0000      -0.345437        -9.3998
  59   2.0000      -0.331273        -9.0144
  60   2.0000      -0.327457        -8.9106
  61   2.0000      -0.259907        -7.0724
  62   2.0000      -0.252803        -6.8791
  63   2.0000      -0.245662        -6.6848
  64   2.0000      -0.244128        -6.6431
  65   2.0000      -0.238338        -6.4855
  66   2.0000      -0.230904        -6.2832
  67   0.0000       0.001529         0.0416
  68   0.0000       0.003894         0.1060
  69   0.0000       0.015173         0.4129
  70   0.0000       0.028365         0.7718
  71   0.0000       0.085167         2.3175

MULLIKEN ATOMIC CHARGES
-----------------------
   0 C :   -0.563193
   1 H :    0.191610
   2 H :    0.196653
   3 H :    0.182698
   4 C :    0.529733
   5 O :   -0.531788
   6 N :   -0.368368
   7 C :   -0.250460
   8 H :    0.181956
   9 H :    0.206010
  10 C :   -0.167388
  11 H :    0.180527
  12 H :    0.179377
  13 C :   -0.370427
  14 H :    0.176856
  15 H :    0.165432
  16 C :    0.149680
  17 C :   -0.194520
  18 C :   -0.196327
  19 C :   -0.149181
  20 H :    0.146059
  21 C :   -0.148462
  22 H :    0.143289
  23 C :   -0.148922
  24 H :    0.148238
  25 H :    0.147315
  26 H :    0.146790
  27 C :    0.518605
  28 N :   -0.358534
  29 O :   -0.537122
  30 C :   -0.345863
  31 H :    0.170142
  32 H :    0.173023
  33 H :    0.196743
  34 C :   -0.330739
  35 H :    0.171226
  36 H :    0.187332
  37 H :    0.172004
Sum of atomic charges:   -0.0000000

LOEWDIN ATOMIC CHARGES
----------------------
   0 C :   -0.392706
   1 H :    0.151825
   2 H :    0.157571
   3 H :    0.150946
   4 C :    0.115003
   5 O :   -0.334305
   6 N :   -0.069767
   7 C :   -0.178288
   8 H :    0.145518
   9 H :    0.160273
  10 C :   -0.155922
  11 H :    0.142453
  12 H :    0.142279
  13 C :   -0.237958
  14 H :    0.141272
  15 H :    0.134409
  16 C :   -0.023400
  17 C :   -0.141602
  18 C :   -0.142955
  19 C :   -0.136179
  20 H :    0.137784
  21 C :   -0.137054
  22 H :    0.137050
  23 C :   -0.142273
  24 H :    0.139145
  25 H :    0.138791
  26 H :    0.138579
  27 C :    0.094422
  28 N :   -0.068892
  29 O :   -0.336468
  30 C :   -0.285112
  31 H :    0.131739
  32 H :    0.136804
  33 H :    0.149701
  34 C :   -0.279704
  35 H :    0.131892
  36 H :    0.148255
  37 H :    0.136873

  Mayer bond orders larger than 0.100000
B(  0-C ,  1-H ) :   0.9187 B(  0-C ,  2-H ) :   0.9211 B(  0-C ,  3-H ) :   0.9386
B(  0-C ,  4-C ) :   0.9936 B(  4-C ,  5-O ) :   1.7487 B(  4-C ,  6-N ) :   1.1629
B(  6-N ,  7-C ) :   0.9530 B(  6-N , 10-C ) :   0.9248 B(  7-C ,  8-H ) :   0.9159
B(  7-C ,  9-H ) :   0.8931 B(  7-C , 27-C ) :   0.9374 B( 10-C , 11-H ) :   0.9218
B( 10-C , 12-H ) :   0.9211 B( 10-C , 13-C ) :   0.9737 B( 13-C , 14-H ) :   0.9179
B( 13-C , 15-H ) :   0.9239 B( 13-C , 16-C ) :   0.9747 B( 16-C , 17-C ) :   1.4261
B( 16-C , 18-C ) :   1.4405 B( 17-C , 19-C ) :   1.4425 B( 17-C , 20-H ) :   0.9132
B( 18-C , 21-C ) :   1.4329 B( 18-C , 22-H ) :   0.9226 B( 19-C , 23-C ) :   1.4438
B( 19-C , 24-H ) :   0.9268 B( 21-C , 23-C ) :   1.4534 B( 21-C , 25-H ) :   0.9267
B( 23-C , 26-H ) :   0.9276 B( 27-C , 28-N ) :   1.1962 B( 27-C , 29-O ) :   1.7407
B( 28-N , 30-C ) :   0.9502 B( 28-N , 34-C ) :   0.9471 B( 30-C , 31-H ) :   0.9308
B( 30-C , 32-H ) :   0.9344 B( 30-C , 33-H ) :   0.9023 B( 34-C , 35-H ) :   0.9337
B( 34-C , 36-H ) :   0.9259 B( 34-C , 37-H ) :   0.9374

Dispersion correction           -0.071302717
FINAL SINGLE POINT ENERGY      -805.088926699125

DIPOLE MOMENT
-------------
                                X             Y             Z
Electronic contribution:      1.83038      -0.31612       5.37604
Nuclear contribution   :     -1.09864       0.81158      -6.59827
                        -----------------------------------------
Total Dipole Moment    :      0.73173       0.49546      -1.22223
                        -----------------------------------------
Magnitude (a.u.)       :      1.50823
Magnitude (Debye)      :      3.83361

Dispersion correction in the Hessian             ... Starting D4

VIBRATIONAL FREQUENCIES
-----------------------

Scaling factor for frequencies =  1.000000000  (already applied!)

   0:         0.00 cm**-1
   1:         0.00 cm**-1
   2:         0.00 cm**-1
   3:         0.00 cm**-1
   4:         0.00 cm**-1
   5:         0.00 cm**-1
   6:        20.54 cm**-1
   7:        35.77 cm**-1
   8:        43.62 cm**-1
   9:        63.24 cm**-1
  10:        79.71 cm**-1
  11:        84.75 cm**-1
  12:        88.09 cm**-1
  13:       115.32 cm**-1
  14:       120.84 cm**-1
  15:       133.16 cm**-1
  16:       161.13 cm**-1
  17:       169.41 cm**-1
  18:       217.83 cm**-1
  19:       238.30 cm**-1
  20:       272.70 cm**-1
  21:       290.95 cm**-1
  22:       332.55 cm**-1
  23:       354.12 cm**-1
  24:       367.96 cm**-1
  25:       388.89 cm**-1
  26:       418.39 cm**-1
  27:       434.59 cm**-1
  28:       463.12 cm**-1
  29:       494.85 cm**-1
  30:       516.25 cm**-1
  31:       563.07 cm**-1
  32:       585.62 cm**-1
  33:       600.45 cm**-1
  34:       634.32 cm**-1
  35:       642.31 cm**-1
  36:       701.48 cm**-1
  37:       718.71 cm**-1
  38:       760.10 cm**-1
  39:       770.59 cm**-1
  40:       781.91 cm**-1
  41:       814.43 cm**-1
  42:       860.32 cm**-1
  43:       869.35 cm**-1
  44:       931.95 cm**-1
  45:       962.66 cm**-1
  46:       979.86 cm**-1
  47:      1002.77 cm**-1
  48:      1003.38 cm**-1
  49:      1010.36 cm**-1
  50:      1015.56 cm**-1
  51:      1028.55 cm**-1
  52:      1034.37 cm**-1
  53:      1056.17 cm**-1
  54:      1061.76 cm**-1
  55:      1087.28 cm**-1
  56:      1091.43 cm**-1
  57:      1121.65 cm**-1
  58:      1135.91 cm**-1
  59:      1170.33 cm**-1
  60:      1183.42 cm**-1
  61:      1185.37 cm**-1
  62:      1206.22 cm**-1
  63:      1218.86 cm**-1
  64:      1236.10 cm**-1
  65:      1251.27 cm**-1
  66:      1286.16 cm**-1
  67:      1291.14 cm**-1
  68:      1332.69 cm**-1
  69:      1336.68 cm**-1
  70:      1361.80 cm**-1
  71:      1371.06 cm**-1
  72:      1374.04 cm**-1
  73:      1407.19 cm**-1
  74:      1414.47 cm**-1
  75:      1442.97 cm**-1
  76:      1458.18 cm**-1
  77:      1474.86 cm**-1
  78:      1483.99 cm**-1
  79:      1490.63 cm**-1
  80:      1498.56 cm**-1
  81:      1502.66 cm**-1
  82:      1505.94 cm**-1
  83:      1511.47 cm**-1
  84:      1513.55 cm**-1
  85:      1519.87 cm**-1
  86:      1530.58 cm**-1
  87:      1533.53 cm**-1
  88:      1543.69 cm**-1
  89:      1556.42 cm**-1
  90:      1640.54 cm**-1
  91:      1661.82 cm**-1
  92:      1706.42 cm**-1
  93:      1710.94 cm**-1
  94:      3034.01 cm**-1
  95:      3038.63 cm**-1
  96:      3064.60 cm**-1
  97:      3071.32 cm**-1
  98:      3084.63 cm**-1
  99:      3087.77 cm**-1
 100:      3095.56 cm**-1
 101:      3104.24 cm**-1
 102:      3116.81 cm**-1
 103:      3132.54 cm**-1
 104:      3139.24 cm**-1
 105:      3168.05 cm**-1
 106:      3172.07 cm**-1
 107:      3178.25 cm**-1
 108:      3180.93 cm**-1
 109:      3190.49 cm**-1
 110:      3193.77 cm**-1
 111:      3196.09 cm**-1
 112:      3198.41 cm**-1
 113:      3209.66 cm**-1

IR SPECTRUM
-----------

 Mode   freq       eps      Int      T**2         TX        TY        TZ
       cm**-1   L/(mol*cm) km/mol    a.u.
----------------------------------------------------------------------------
  6:     20.54   0.000050    0.25  0.000765  (-0.026607 -0.004112 -0.006320)
  7:     35.77   0.000110    0.56  0.000964  ( 0.015390  0.021979 -0.015608)
  8:     43.62   0.000633    3.20  0.004526  ( 0.065446 -0.007926 -0.013423)
  9:     63.24   0.001477    7.46  0.007287  ( 0.042840  0.044207 -0.059135)
 10:     79.71   0.000125    0.63  0.000489  ( 0.005037 -0.009445 -0.019361)
 11:     84.75   0.001160    5.86  0.004272  (-0.031156 -0.057431 -0.001718)
 12:     88.09   0.000146    0.74  0.000515  ( 0.014358 -0.010930 -0.013778)
 13:    115.32   0.000810    4.09  0.002191  (-0.004766 -0.022721 -0.040648)
 14:    120.84   0.001700    8.59  0.004391  (-0.009560  0.047403  0.045302)
 15:    133.16   0.001342    6.78  0.003146  ( 0.018730  0.051256  0.012961)
 16:    161.13   0.000363    1.83  0.000703  ( 0.004482  0.023632 -0.011158)
 17:    169.41   0.000048    0.24  0.000089  (-0.005174  0.001061 -0.007824)
 18:    217.83   0.000073    0.37  0.000105  (-0.007041  0.001536  0.007270)
 19:    238.30   0.000743    3.76  0.000973  ( 0.020716  0.021960 -0.007868)
 20:    272.70   0.002476   12.51  0.002833  ( 0.039201  0.035634 -0.005184)
 21:    290.95   0.000284    1.44  0.000305  ( 0.009302 -0.002526  0.014555)
 22:    332.55   0.000596    3.01  0.000559  (-0.000223 -0.021362  0.010132)
 23:    354.12   0.002162   10.93  0.001905  ( 0.020267  0.011647  0.036862)
 24:    367.96   0.001840    9.30  0.001560  (-0.009959  0.031661  0.021414)
 25:    388.89   0.002401   12.13  0.001927  ( 0.010329 -0.020163 -0.037598)
 26:    418.39   0.000024    0.12  0.000018  ( 0.004026 -0.000241 -0.001348)
 27:    434.59   0.000210    1.06  0.000151  ( 0.004006  0.011054  0.003507)
 28:    463.12   0.002835   14.33  0.001910  (-0.040916  0.014912  0.003698)
 29:    494.85   0.004168   21.06  0.002628  (-0.028281 -0.038879  0.017801)
 30:    516.25   0.003486   17.62  0.002107  (-0.013793  0.011201  0.042328)
 31:    563.07   0.003050   15.41  0.001690  ( 0.028251 -0.029108  0.006686)
 32:    585.62   0.002430   12.28  0.001295  ( 0.002004  0.024100  0.026644)
 33:    600.45   0.003465   17.51  0.001801  (-0.014608  0.027423  0.028901)
 34:    634.32   0.000070    0.35  0.000034  (-0.004342 -0.002508 -0.003058)
 35:    642.31   0.002525   12.76  0.001227  (-0.011634  0.009981 -0.031492)
 36:    701.48   0.000959    4.84  0.000426  ( 0.018485  0.002576  0.008836)
 37:    718.71   0.007310   36.94  0.003174  ( 0.002507 -0.028631 -0.048457)
 38:    760.10   0.006709   33.90  0.002754  ( 0.000694  0.030950  0.042379)
 39:    770.59   0.001610    8.14  0.000652  (-0.013630 -0.007927  0.020088)
 40:    781.91   0.001656    8.37  0.000661  (-0.000593  0.025148  0.005304)
 41:    814.43   0.002572   13.00  0.000986  ( 0.021583  0.005743  0.022064)
 42:    860.32   0.002404   12.15  0.000872  (-0.017336 -0.008945 -0.022165)
 43:    869.35   0.000076    0.38  0.000027  ( 0.004306  0.002801  0.000888)
 44:    931.95   0.000325    1.64  0.000109  ( 0.000013 -0.005280 -0.008990)
 45:    962.66   0.000781    3.95  0.000253  ( 0.011159  0.003766  0.010706)
 46:    979.86   0.000005    0.03  0.000002  ( 0.001235 -0.000156 -0.000447)
 47:   1002.77   0.003701   18.71  0.001152  (-0.017145 -0.009469 -0.027718)
 48:   1003.38   0.000681    3.44  0.000212  (-0.010724 -0.001146 -0.009777)
 49:   1010.36   0.005902   29.83  0.001823  ( 0.025985 -0.023619 -0.024287)
 50:   1015.56   0.000087    0.44  0.000027  (-0.003218  0.003795 -0.001387)
 51:   1028.55   0.008450   42.70  0.002564  (-0.022567  0.040751 -0.019843)
 52:   1034.37   0.005005   25.30  0.001510  (-0.020871  0.015759  0.028743)
 53:   1056.17   0.001575    7.96  0.000465  ( 0.021303 -0.001332  0.003107)
 54:   1061.76   0.001998   10.10  0.000587  ( 0.001145  0.010998  0.021562)
 55:   1087.28   0.003296   16.66  0.000946  ( 0.021162 -0.013175  0.018013)
 56:   1091.43   0.001461    7.38  0.000418  ( 0.004896 -0.015129 -0.012836)
 57:   1121.65   0.002641   13.35  0.000735  ( 0.011886 -0.005265  0.023789)
 58:   1135.91   0.000580    2.93  0.000159  (-0.001419  0.012465 -0.001356)
 59:   1170.33   0.013575   68.60  0.003620  ( 0.039329  0.020797  0.040501)
 60:   1183.42   0.000066    0.34  0.000017  ( 0.002609 -0.000947  0.003129)
 61:   1185.37   0.000881    4.45  0.000232  (-0.008391 -0.004072 -0.012043)
 62:   1206.22   0.000022    0.11  0.000006  ( 0.000230 -0.000066 -0.002378)
 63:   1218.86   0.009857   49.81  0.002524  (-0.001021  0.019067 -0.046466)
 64:   1236.10   0.002193   11.08  0.000554  ( 0.015870 -0.017071  0.003206)
 65:   1251.27   0.013574   68.60  0.003385  ( 0.034998 -0.045332  0.010266)
 66:   1286.16   0.007517   37.99  0.001824  ( 0.011778 -0.011649 -0.039362)
 67:   1291.14   0.030960  156.46  0.007483  ( 0.012629 -0.083690  0.017872)
 68:   1332.69   0.000053    0.27  0.000012  (-0.001698 -0.001742  0.002564)
 69:   1336.68   0.003205   16.20  0.000748  ( 0.018115 -0.020376  0.002200)
 70:   1361.80   0.000284    1.44  0.000065  (-0.000374 -0.007402  0.003188)
 71:   1371.06   0.000673    3.40  0.000153  (-0.007387  0.005956 -0.007941)
 72:   1374.04   0.000346    1.75  0.000079  (-0.003289 -0.008099 -0.001471)
 73:   1407.19   0.011979   60.54  0.002656  (-0.049839  0.009573  0.008995)
 74:   1414.47   0.006032   30.48  0.001331  ( 0.020456 -0.027860  0.011670)
 75:   1442.97   0.014613   73.85  0.003160  (-0.015940 -0.022191 -0.049129)
 76:   1458.18   0.016962   85.72  0.003630  ( 0.005139  0.048064  0.035965)
 77:   1474.86   0.045212  228.48  0.009566  (-0.058373  0.073771 -0.026774)
 78:   1483.99   0.003835   19.38  0.000807  (-0.027808 -0.005750  0.000401)
 79:   1490.63   0.000752    3.80  0.000157  ( 0.007648 -0.002803 -0.009540)
 80:   1498.56   0.002886   14.59  0.000601  ( 0.001434 -0.018383  0.016158)
 81:   1502.66   0.001162    5.87  0.000241  ( 0.008402  0.002730  0.012780)
 82:   1505.94   0.003642   18.40  0.000755  ( 0.005816  0.020655 -0.017152)
 83:   1511.47   0.002775   14.02  0.000573  (-0.007057  0.022867 -0.000409)
 84:   1513.55   0.001964    9.93  0.000405  ( 0.003359 -0.019725 -0.002154)
 85:   1519.87   0.003477   17.57  0.000714  (-0.023070 -0.013151  0.002965)
 86:   1530.58   0.005944   30.04  0.001212  ( 0.029556 -0.005938  0.017411)
 87:   1533.53   0.006721   33.97  0.001368  (-0.013141 -0.018254  0.029357)
 88:   1543.69   0.004793   24.22  0.000969  (-0.030380  0.003601 -0.005751)
 89:   1556.42   0.016425   83.00  0.003293  (-0.003461  0.035523  0.044937)
 90:   1640.54   0.000245    1.24  0.000047  (-0.000771  0.005426 -0.004079)
 91:   1661.82   0.002662   13.45  0.000500  (-0.022028  0.002832 -0.002583)
 92:   1706.42   0.196422  992.64  0.035921  (-0.153245  0.050354 -0.099505)
 93:   1710.94   0.035685  180.34  0.006509  (-0.056932 -0.004236  0.057004)
 94:   3034.01   0.005070   25.62  0.000521  (-0.014090  0.015847 -0.008476)
 95:   3038.63   0.018218   92.07  0.001871  ( 0.004750 -0.006427 -0.042510)
 96:   3064.60   0.000824    4.16  0.000084  ( 0.007812  0.004064  0.002521)
 97:   3071.32   0.004015   20.29  0.000408  ( 0.009865 -0.008235  0.015581)
 98:   3084.63   0.003218   16.26  0.000326  (-0.008264 -0.009964  0.012568)
 99:   3087.77   0.012583   63.59  0.001272  (-0.017704 -0.001038 -0.030938)
100:   3095.56   0.011135   56.27  0.001123  ( 0.027732  0.018646  0.002409)
101:   3104.24   0.006192   31.29  0.000622  (-0.019620 -0.015212 -0.002475)
102:   3116.81   0.001321    6.67  0.000132  ( 0.005356  0.010171  0.000287)
103:   3132.54   0.001992   10.07  0.000198  (-0.001706  0.003954  0.013413)
104:   3139.24   0.007761   39.22  0.000772  ( 0.002986  0.026882 -0.006319)
105:   3168.05   0.001510    7.63  0.000149  ( 0.001556  0.011241  0.004469)
106:   3172.07   0.002789   14.09  0.000274  ( 0.013905 -0.008337  0.003386)
107:   3178.25   0.002076   10.49  0.000204  ( 0.011502 -0.006643  0.005235)
108:   3180.93   0.000471    2.38  0.000046  ( 0.002387  0.005839 -0.002532)
109:   3190.49   0.002219   11.21  0.000217  (-0.013201  0.004483 -0.004759)
110:   3193.77   0.001030    5.20  0.000101  ( 0.002128 -0.009152  0.003509)
111:   3196.09   0.000491    2.48  0.000048  (-0.005699 -0.003907 -0.000489)
112:   3198.41   0.010538   53.26  0.001028  (-0.005543 -0.027971  0.014667)
113:   3209.66   0.005654   28.57  0.000550  ( 0.023149 -0.002547  0.002711)

--------------------------
THERMOCHEMISTRY AT 298.15K
--------------------------

Temperature         ... 298.15 K
Pressure            ... 1.00 atm
Total Mass          ... 248.33 AMU

Throughout the following assumptions are being made:
  (1) The electronic state is orbitally nondegenerate
  (2) There are no thermally accessible electronically excited states
  (3) Hindered rotations indicated by low frequency modes are not
      treated as such but are treated as vibrations and this may
      cause some error
  (4) All equations used are the standard statistical mechanics
      equations for an ideal gas
  (5) All vibrations are strictly harmonic

freq.      20.54  E(vib)   ...       0.56
freq.      35.77  E(vib)   ...       0.54
freq.      43.62  E(vib)   ...       0.53
freq.      63.24  E(vib)   ...       0.51
freq.      79.71  E(vib)   ...       0.49
freq.      84.75  E(vib)   ...       0.48
freq.      88.09  E(vib)   ...       0.48
freq.     115.32  E(vib)   ...       0.44
freq.     120.84  E(vib)   ...       0.44
freq.     133.16  E(vib)   ...       0.42
freq.     161.13  E(vib)   ...       0.39
freq.     169.41  E(vib)   ...       0.38
freq.     217.83  E(vib)   ...       0.33
freq.     238.30  E(vib)   ...       0.32
freq.     272.70  E(vib)   ...       0.29
freq.     290.95  E(vib)   ...       0.27
freq.     332.55  E(vib)   ...       0.24
freq.     354.12  E(vib)   ...       0.22
freq.     367.96  E(vib)   ...       0.21
freq.     388.89  E(vib)   ...       0.20
freq.     418.39  E(vib)   ...       0.18
freq.     434.59  E(vib)   ...       0.17
freq.     463.12  E(vib)   ...       0.16
freq.     494.85  E(vib)   ...       0.14
freq.     516.25  E(vib)   ...       0.13
freq.     563.07  E(vib)   ...       0.11
freq.     585.62  E(vib)   ...       0.11
freq.     600.45  E(vib)   ...       0.10
freq.     634.32  E(vib)   ...       0.09
freq.     642.31  E(vib)   ...       0.09
freq.     701.48  E(vib)   ...       0.07
freq.     718.71  E(vib)   ...       0.07
freq.     760.10  E(vib)   ...       0.06
freq.     770.59  E(vib)   ...       0.05
freq.     781.91  E(vib)   ...       0.05
freq.     814.43  E(vib)   ...       0.05
freq.     860.32  E(vib)   ...       0.04
freq.     869.35  E(vib)   ...       0.04
freq.     931.95  E(vib)   ...       0.03
freq.     962.66  E(vib)   ...       0.03
freq.     979.86  E(vib)   ...       0.02
freq.    1002.77  E(vib)   ...       0.02
freq.    1003.38  E(vib)   ...       0.02
freq.    1010.36  E(vib)   ...       0.02
freq.    1015.56  E(vib)   ...       0.02
freq.    1028.55  E(vib)   ...       0.02
freq.    1034.37  E(vib)   ...       0.02
freq.    1056.17  E(vib)   ...       0.02
freq.    1061.76  E(vib)   ...       0.02
freq.    1087.28  E(vib)   ...       0.02
freq.    1091.43  E(vib)   ...       0.02
freq.    1121.65  E(vib)   ...       0.01
freq.    1135.91  E(vib)   ...       0.01
freq.    1170.33  E(vib)   ...       0.01
freq.    1183.42  E(vib)   ...       0.01
freq.    1185.37  E(vib)   ...       0.01
freq.    1206.22  E(vib)   ...       0.01
freq.    1218.86  E(vib)   ...       0.01
freq.    1236.10  E(vib)   ...       0.01
freq.    1251.27  E(vib)   ...       0.01
freq.    1286.16  E(vib)   ...       0.01
freq.    1291.14  E(vib)   ...       0.01
freq.    1332.69  E(vib)   ...       0.01
freq.    1336.68  E(vib)   ...       0.01
freq.    1361.80  E(vib)   ...       0.01
freq.    1371.06  E(vib)   ...       0.01
freq.    1374.04  E(vib)   ...       0.01
freq.    1407.19  E(vib)   ...       0.00
freq.    1414.47  E(vib)   ...       0.00
freq.    1442.97  E(vib)   ...       0.00
freq.    1458.18  E(vib)   ...       0.00
freq.    1474.86  E(vib)   ...       0.00
freq.    1483.99  E(vib)   ...       0.00
freq.    1490.63  E(vib)   ...       0.00
freq.    1498.56  E(vib)   ...       0.00
freq.    1502.66  E(vib)   ...       0.00
freq.    1505.94  E(vib)   ...       0.00
freq.    1511.47  E(vib)   ...       0.00
freq.    1513.55  E(vib)   ...       0.00
freq.    1519.87  E(vib)   ...       0.00
freq.    1530.58  E(vib)   ...       0.00
freq.    1533.53  E(vib)   ...       0.00
freq.    1543.69  E(vib)   ...       0.00
freq.    1556.42  E(vib)   ...       0.00
freq.    1640.54  E(vib)   ...       0.00
freq.    1661.82  E(vib)   ...       0.00
freq.    1706.42  E(vib)   ...       0.00
freq.    1710.94  E(vib)   ...       0.00
freq.    3034.01  E(vib)   ...       0.00
freq.    3038.63  E(vib)   ...       0.00
freq.    3064.60  E(vib)   ...       0.00
freq.    3071.32  E(vib)   ...       0.00
freq.    3084.63  E(vib)   ...       0.00
freq.    3087.77  E(vib)   ...       0.00
freq.    3095.56  E(vib)   ...       0.00
freq.    3104.24  E(vib)   ...       0.00
freq.    3116.81  E(vib)   ...       0.00
freq.    3132.54  E(vib)   ...       0.00
freq.    3139.24  E(vib)   ...       0.00
freq.    3168.05  E(vib)   ...       0.00
freq.    3172.07  E(vib)   ...       0.00
freq.    3178.25  E(vib)   ...       0.00
freq.    3180.93  E(vib)   ...       0.00
freq.    3190.49  E(vib)   ...       0.00
freq.    3193.77  E(vib)   ...       0.00
freq.    3196.09  E(vib)   ...       0.00
freq.    3198.41  E(vib)   ...       0.00
freq.    3209.66  E(vib)   ...       0.00

------------
INNER ENERGY
------------

The inner energy is: U= E(el) + E(ZPE) + E(vib) + E(rot) + E(trans)
    E(el)   - is the total energy from the electronic structure calculation
              = E(kin-el) + E(nuc-el) + E(el-el) + E(nuc-nuc)
    E(ZPE)  - the the zero temperature vibrational energy from the frequency calculation
    E(vib)  - the the finite temperature correction to E(ZPE) due to population
              of excited vibrational states
    E(rot)  - is the rotational thermal energy
    E(trans)- is the translational thermal energy

Summary of contributions to the inner energy U:
Electronic energy                ...   -805.08892670 Eh
Zero point energy                ...      0.32646807 Eh     204.86 kcal/mol
Thermal vibrational correction   ...      0.01584912 Eh       9.95 kcal/mol
Thermal rotational correction    ...      0.00141627 Eh       0.89 kcal/mol
Thermal translational correction ...      0.00141627 Eh       0.89 kcal/mol
-----------------------------------------------------------------------
Total thermal energy                   -804.74377696 Eh

Summary of corrections to the electronic energy:
(perhaps to be used in another calculation)
Total thermal correction                  0.01868166 Eh      11.72 kcal/mol
Non-thermal (ZPE) correction              0.32646807 Eh     204.86 kcal/mol
-----------------------------------------------------------------------
Total correction                          0.34514974 Eh     216.58 kcal/mol

--------
ENTHALPY
--------

Rotational constants in cm-1:     0.019638     0.008918     0.007003

                             ****ORCA TERMINATED NORMALLY****
TOTAL RUN TIME: 0 days 0 hours 33 minutes 40 seconds 805 msec
