                         Program Version 5.0.4 -  RELEASE  -
|  1> ! OPT FREQ B3LYP 6-31G(d) D4 AUTOAUX
|  2>
|  3> %PAL NPROCS 4 END
|  4>
|  5> %maxcore 3375
|  6>
|  7> *xyzfile 0 1 /users/fjb15167/WWenergy/structures/NmO.xyz
|  8>
|  9>                          ****END OF INPUT****
 Total Charge           Charge          ....    0
 Multiplicity           Mult            ....    1
 Number of Electrons    NEL             ....  110
Dispersion correction           -0.053263599
FINAL SINGLE POINT ENERGY      -688.605320201663
Dispersion correction            ... Starting D4
Dispersion correction           -0.052783309
FINAL SINGLE POINT ENERGY      -688.605801375083
Dispersion correction            ... Starting D4
Dispersion correction           -0.053003955
FINAL SINGLE POINT ENERGY      -688.605908487797
Dispersion correction            ... Starting D4
FINAL SINGLE POINT ENERGY      -688.605965017040
FINAL SINGLE POINT ENERGY      -688.605992207977
FINAL SINGLE POINT ENERGY      -688.606005268750
Dispersion correction           -0.053135206
FINAL SINGLE POINT ENERGY      -688.606014246662
Dispersion correction            ... Starting D4
Dispersion correction           -0.053155117
FINAL SINGLE POINT ENERGY      -688.606018721184
Dispersion correction            ... Starting D4
                    ***********************HURRAY********************

CARTESIAN COORDINATES (ANGSTROEM)
---------------------------------
  C      2.977446   -1.473795   -0.618584
  H      2.319348   -1.894413   -1.385434
  H      3.165166   -2.257803    0.125068
  H      3.925362   -1.188756   -1.076481
  C      2.394566   -0.231331    0.036389
  O      3.026793    0.824169    0.064154
  N      1.148067   -0.344856    0.604086
  C      0.608825    0.784512    1.360955
  H      0.433480    0.476761    2.396806
  H      1.357438    1.576199    1.346781
  C      0.319099   -1.549257    0.550391
  H      0.938886   -2.445300    0.644178
  H     -0.344590   -1.525333    1.418948
  C     -0.540644   -1.644606   -0.725472
  H     -0.990353   -0.667297   -0.950144
  H      0.082804   -1.925052   -1.582624
  C     -0.762143    1.231515    0.838161
  N     -0.808692    1.965875   -0.313936
  O     -1.776392    0.889014    1.447960
  C      0.334337    2.306006   -1.149149
  H      0.295553    1.749695   -2.097372
  H      0.307674    3.377164   -1.386419
  H      1.283201    2.081495   -0.663576
  C     -2.110743    2.319994   -0.860976
  H     -2.320930    1.743220   -1.773543
  H     -2.873181    2.102517   -0.114250
  H     -2.128919    3.386430   -1.116375
  O     -1.528627   -2.646058   -0.594613
  C     -2.730267   -2.169064   -0.004845
  H     -3.235639   -1.449375   -0.667870
  H     -3.376408   -3.039282    0.138720
  H     -2.561516   -1.674986    0.961067

 Multiplicity           Mult            ....    1
 Number of Electrons    NEL             ....  110
 Basis Dimension        Dim             ....  232

ORBITAL ENERGIES
----------------

  NO   OCC          E(Eh)            E(eV)
   0   2.0000     -19.141074      -520.8551
   1   2.0000     -19.110102      -520.0123
   2   2.0000     -19.107377      -519.9382
   3   2.0000     -14.365955      -390.9175
   4   2.0000     -14.363279      -390.8447
   5   2.0000     -10.286342      -279.9056
   6   2.0000     -10.280653      -279.7508
   7   2.0000     -10.227665      -278.3089
   8   2.0000     -10.218125      -278.0493
   9   2.0000     -10.216036      -277.9925
  10   2.0000     -10.211100      -277.8582
  11   2.0000     -10.208704      -277.7929
  12   2.0000     -10.205380      -277.7025
  13   2.0000     -10.185157      -277.1522
  14   2.0000      -1.036414       -28.2023
  15   2.0000      -1.028548       -27.9882
  16   2.0000      -1.028326       -27.9822
  17   2.0000      -0.938188       -25.5294
  18   2.0000      -0.931650       -25.3515
  19   2.0000      -0.769974       -20.9521
  20   2.0000      -0.753739       -20.5103
  21   2.0000      -0.726046       -19.7567
  22   2.0000      -0.713178       -19.4066
  23   2.0000      -0.686869       -18.6907
  24   2.0000      -0.674871       -18.3642
  25   2.0000      -0.618920       -16.8417
  26   2.0000      -0.558722       -15.2036
  27   2.0000      -0.544093       -14.8055
  28   2.0000      -0.518921       -14.1206
  29   2.0000      -0.499307       -13.5868
  30   2.0000      -0.487896       -13.2763
  31   2.0000      -0.476793       -12.9742
  32   2.0000      -0.473373       -12.8811
  33   2.0000      -0.466976       -12.7071
  34   2.0000      -0.461767       -12.5653
  35   2.0000      -0.448064       -12.1924
  36   2.0000      -0.436699       -11.8832
  37   2.0000      -0.419477       -11.4145
  38   2.0000      -0.408819       -11.1245
  39   2.0000      -0.406910       -11.0726
  40   2.0000      -0.403809       -10.9882
  41   2.0000      -0.400785       -10.9059
  42   2.0000      -0.397082       -10.8052
  43   2.0000      -0.389954       -10.6112
  44   2.0000      -0.388288       -10.5659
  45   2.0000      -0.377762       -10.2794
  46   2.0000      -0.365365        -9.9421
  47   2.0000      -0.360148        -9.8001
  48   2.0000      -0.353305        -9.6139
  49   2.0000      -0.311449        -8.4750
  50   2.0000      -0.267292        -7.2734
  51   2.0000      -0.254253        -6.9186
  52   2.0000      -0.251712        -6.8494
  53   2.0000      -0.240549        -6.5457
  54   2.0000      -0.231658        -6.3037
  55   0.0000       0.013055         0.3552
  56   0.0000       0.025479         0.6933
  57   0.0000       0.072635         1.9765
  58   0.0000       0.084223         2.2918
  59   0.0000       0.101282         2.7560

MULLIKEN ATOMIC CHARGES
-----------------------
   0 C :   -0.551630
   1 H :    0.170813
   2 H :    0.176871
   3 H :    0.189334
   4 C :    0.524241
   5 O :   -0.476269
   6 N :   -0.379538
   7 C :   -0.246957
   8 H :    0.175254
   9 H :    0.202889
  10 C :   -0.182053
  11 H :    0.162873
  12 H :    0.180098
  13 C :   -0.024944
  14 H :    0.141090
  15 H :    0.139766
  16 C :    0.514938
  17 N :   -0.365013
  18 O :   -0.485063
  19 C :   -0.348298
  20 H :    0.150376
  21 H :    0.156362
  22 H :    0.215964
  23 C :   -0.323015
  24 H :    0.150270
  25 H :    0.202424
  26 H :    0.154131
  27 O :   -0.466631
  28 C :   -0.208530
  29 H :    0.133340
  30 H :    0.153433
  31 H :    0.163473
Sum of atomic charges:    0.0000000

LOEWDIN ATOMIC CHARGES
----------------------
   0 C :   -0.389657
   1 H :    0.141430
   2 H :    0.147055
   3 H :    0.153867
   4 C :    0.109081
   5 O :   -0.287097
   6 N :   -0.079319
   7 C :   -0.178514
   8 H :    0.141809
   9 H :    0.158524
  10 C :   -0.175543
  11 H :    0.133952
  12 H :    0.143609
  13 C :   -0.110505
  14 H :    0.115556
  15 H :    0.117621
  16 C :    0.091511
  17 N :   -0.080621
  18 O :   -0.291050
  19 C :   -0.287168
  20 H :    0.121666
  21 H :    0.127123
  22 H :    0.157178
  23 C :   -0.279102
  24 H :    0.121103
  25 H :    0.155761
  26 H :    0.126742
  27 O :   -0.246239
  28 C :   -0.213178
  29 H :    0.107888
  30 H :    0.126287
  31 H :    0.120230

  Mayer bond orders larger than 0.100000
B(  0-C ,  1-H ) :   0.9250 B(  0-C ,  2-H ) :   0.9288 B(  0-C ,  3-H ) :   0.9397
B(  0-C ,  4-C ) :   0.9811 B(  4-C ,  5-O ) :   1.7920 B(  4-C ,  6-N ) :   1.1299
B(  6-N ,  7-C ) :   0.9531 B(  6-N , 10-C ) :   0.9194 B(  7-C ,  8-H ) :   0.9193
B(  7-C ,  9-H ) :   0.8943 B(  7-C , 16-C ) :   0.9305 B( 10-C , 11-H ) :   0.9275
B( 10-C , 12-H ) :   0.9210 B( 10-C , 13-C ) :   0.9601 B( 13-C , 14-H ) :   0.9182
B( 13-C , 15-H ) :   0.9336 B( 13-C , 27-O ) :   0.9460 B( 16-C , 17-N ) :   1.1568
B( 16-C , 18-O ) :   1.7835 B( 17-N , 19-C ) :   0.9552 B( 17-N , 23-C ) :   0.9551
B( 19-C , 20-H ) :   0.9355 B( 19-C , 21-H ) :   0.9373 B( 19-C , 22-H ) :   0.8918
B( 23-C , 24-H ) :   0.9380 B( 23-C , 25-H ) :   0.9196 B( 23-C , 26-H ) :   0.9408
B( 27-O , 28-C ) :   0.9368 B( 28-C , 29-H ) :   0.9359 B( 28-C , 30-H ) :   0.9513
B( 28-C , 31-H ) :   0.9188

Dispersion correction           -0.053152165
FINAL SINGLE POINT ENERGY      -688.606024278687

DIPOLE MOMENT
-------------
                                X             Y             Z
Electronic contribution:      3.57963       1.49440       5.28321
Nuclear contribution   :     -3.69920      -1.57188      -5.91503
                        -----------------------------------------
Total Dipole Moment    :     -0.11958      -0.07748      -0.63182
                        -----------------------------------------
Magnitude (a.u.)       :      0.64769
Magnitude (Debye)      :      1.64630

Dispersion correction in the Hessian             ... Starting D4

VIBRATIONAL FREQUENCIES
-----------------------

Scaling factor for frequencies =  1.000000000  (already applied!)

   0:         0.00 cm**-1
   1:         0.00 cm**-1
   2:         0.00 cm**-1
   3:         0.00 cm**-1
   4:         0.00 cm**-1
   5:         0.00 cm**-1
   6:        33.22 cm**-1
   7:        57.96 cm**-1
   8:        60.44 cm**-1
   9:        82.91 cm**-1
  10:        86.86 cm**-1
  11:        99.40 cm**-1
  12:       111.65 cm**-1
  13:       129.33 cm**-1
  14:       144.34 cm**-1
  15:       149.42 cm**-1
  16:       169.91 cm**-1
  17:       177.78 cm**-1
  18:       227.76 cm**-1
  19:       243.44 cm**-1
  20:       280.50 cm**-1
  21:       320.41 cm**-1
  22:       365.64 cm**-1
  23:       371.20 cm**-1
  24:       384.67 cm**-1
  25:       429.66 cm**-1
  26:       451.42 cm**-1
  27:       471.18 cm**-1
  28:       490.46 cm**-1
  29:       582.88 cm**-1
  30:       596.21 cm**-1
  31:       636.97 cm**-1
  32:       703.09 cm**-1
  33:       767.21 cm**-1
  34:       794.19 cm**-1
  35:       830.44 cm**-1
  36:       955.26 cm**-1
  37:       971.87 cm**-1
  38:      1005.17 cm**-1
  39:      1012.34 cm**-1
  40:      1040.93 cm**-1
  41:      1063.87 cm**-1
  42:      1066.31 cm**-1
  43:      1095.53 cm**-1
  44:      1121.17 cm**-1
  45:      1140.94 cm**-1
  46:      1150.29 cm**-1
  47:      1183.16 cm**-1
  48:      1189.37 cm**-1
  49:      1201.83 cm**-1
  50:      1232.80 cm**-1
  51:      1245.02 cm**-1
  52:      1285.87 cm**-1
  53:      1291.26 cm**-1
  54:      1311.56 cm**-1
  55:      1346.14 cm**-1
  56:      1360.99 cm**-1
  57:      1383.22 cm**-1
  58:      1417.27 cm**-1
  59:      1437.50 cm**-1
  60:      1448.17 cm**-1
  61:      1461.16 cm**-1
  62:      1471.45 cm**-1
  63:      1494.42 cm**-1
  64:      1500.46 cm**-1
  65:      1505.87 cm**-1
  66:      1516.93 cm**-1
  67:      1517.10 cm**-1
  68:      1519.04 cm**-1
  69:      1523.67 cm**-1
  70:      1530.07 cm**-1
  71:      1533.00 cm**-1
  72:      1536.47 cm**-1
  73:      1538.78 cm**-1
  74:      1542.45 cm**-1
  75:      1569.23 cm**-1
  76:      1745.58 cm**-1
  77:      1748.25 cm**-1
  78:      3006.48 cm**-1
  79:      3018.94 cm**-1
  80:      3026.66 cm**-1
  81:      3036.38 cm**-1
  82:      3060.73 cm**-1
  83:      3073.00 cm**-1
  84:      3073.29 cm**-1
  85:      3082.18 cm**-1
  86:      3083.57 cm**-1
  87:      3084.07 cm**-1
  88:      3089.37 cm**-1
  89:      3125.25 cm**-1
  90:      3136.65 cm**-1
  91:      3139.79 cm**-1
  92:      3166.84 cm**-1
  93:      3177.01 cm**-1
  94:      3186.58 cm**-1
  95:      3190.85 cm**-1

IR SPECTRUM
-----------

 Mode   freq       eps      Int      T**2         TX        TY        TZ
       cm**-1   L/(mol*cm) km/mol    a.u.
----------------------------------------------------------------------------
  6:     33.22   0.000316    1.60  0.002966  (-0.009792 -0.029882 -0.044467)
  7:     57.96   0.000554    2.80  0.002983  (-0.007943  0.047814  0.025177)
  8:     60.44   0.000436    2.20  0.002249  (-0.039520 -0.026189 -0.001316)
  9:     82.91   0.000238    1.20  0.000895  ( 0.010781  0.002516  0.027789)
 10:     86.86   0.000375    1.90  0.001348  (-0.022117  0.005917  0.028706)
 11:     99.40   0.000237    1.20  0.000743  ( 0.006664 -0.017100 -0.020166)
 12:    111.65   0.001887    9.54  0.005275  ( 0.039125 -0.048709  0.037032)
 13:    129.33   0.000620    3.13  0.001496  (-0.028031  0.016270 -0.021118)
 14:    144.34   0.000317    1.60  0.000686  (-0.013441  0.021064  0.007861)
 15:    149.42   0.000306    1.55  0.000639  ( 0.022350 -0.009121  0.007480)
 16:    169.91   0.000046    0.23  0.000084  (-0.001253 -0.001057  0.009026)
 17:    177.78   0.000507    2.56  0.000890  (-0.000728  0.022684  0.019370)
 18:    227.76   0.000254    1.28  0.000348  (-0.000330  0.016519  0.008661)
 19:    243.44   0.000539    2.72  0.000691  (-0.019890  0.017125 -0.001490)
 20:    280.50   0.001369    6.92  0.001523  ( 0.006953 -0.037739 -0.007099)
 21:    320.41   0.000483    2.44  0.000471  ( 0.013353  0.005117  0.016316)
 22:    365.64   0.002576   13.02  0.002198  ( 0.021372 -0.013891  0.039354)
 23:    371.20   0.000858    4.34  0.000722  ( 0.010333  0.016214 -0.018759)
 24:    384.67   0.001688    8.53  0.001370  (-0.025574  0.011805 -0.024002)
 25:    429.66   0.000013    0.06  0.000009  ( 0.002871  0.000825  0.000481)
 26:    451.42   0.002473   12.50  0.001710  (-0.008991 -0.036095 -0.018052)
 27:    471.18   0.000816    4.13  0.000541  (-0.022687  0.001091  0.004980)
 28:    490.46   0.002259   11.41  0.001437  (-0.010634  0.028137  0.023073)
 29:    582.88   0.001720    8.69  0.000921  ( 0.024705 -0.009983  0.014522)
 30:    596.21   0.002441   12.33  0.001278  ( 0.031487 -0.003978  0.016440)
 31:    636.97   0.002482   12.54  0.001216  (-0.016452 -0.015916  0.026305)
 32:    703.09   0.000328    1.66  0.000146  (-0.002625 -0.010354  0.005616)
 33:    767.21   0.001498    7.57  0.000609  (-0.015130  0.016003 -0.011155)
 34:    794.19   0.001878    9.49  0.000738  (-0.013662  0.022162  0.007749)
 35:    830.44   0.002879   14.55  0.001082  ( 0.003427  0.029450 -0.014238)
 36:    955.26   0.001946    9.83  0.000636  (-0.003062  0.024475  0.005225)
 37:    971.87   0.001987   10.04  0.000638  (-0.004360  0.021561  0.012410)
 38:   1005.17   0.002999   15.16  0.000931  (-0.012471 -0.021229  0.018024)
 39:   1012.34   0.006525   32.97  0.002011  (-0.036739  0.006816 -0.024801)
 40:   1040.93   0.000782    3.95  0.000234  (-0.007931  0.012948  0.001969)
 41:   1063.87   0.000828    4.18  0.000243  (-0.013304  0.007996 -0.001390)
 42:   1066.31   0.003619   18.29  0.001059  ( 0.010645 -0.004215 -0.030466)
 43:   1095.53   0.000975    4.93  0.000278  (-0.016330 -0.003146 -0.001019)
 44:   1121.17   0.013509   68.27  0.003760  (-0.048806 -0.032845  0.017299)
 45:   1140.94   0.000129    0.65  0.000035  ( 0.004973 -0.002590 -0.001983)
 46:   1150.29   0.012557   63.46  0.003406  ( 0.054938 -0.018466  0.006872)
 47:   1183.16   0.003751   18.96  0.000989  (-0.014053 -0.017121  0.022334)
 48:   1189.37   0.001037    5.24  0.000272  (-0.003967 -0.014801  0.006100)
 49:   1201.83   0.014607   73.82  0.003793  ( 0.046462  0.017183 -0.036590)
 50:   1232.80   0.008072   40.79  0.002043  ( 0.038724  0.020327  0.011431)
 51:   1245.02   0.001809    9.14  0.000453  ( 0.020767 -0.001335  0.004515)
 52:   1285.87   0.009633   48.68  0.002338  (-0.034973  0.013263  0.030640)
 53:   1291.26   0.014020   70.85  0.003388  (-0.054420  0.018105 -0.009954)
 54:   1311.56   0.004631   23.41  0.001102  (-0.023673  0.020635  0.010760)
 55:   1346.14   0.003995   20.19  0.000926  ( 0.030024 -0.004959 -0.000322)
 56:   1360.99   0.000754    3.81  0.000173  (-0.007992 -0.007102 -0.007658)
 57:   1383.22   0.002437   12.31  0.000550  (-0.018013 -0.014620 -0.003400)
 58:   1417.27   0.001442    7.28  0.000317  ( 0.000156  0.012630  0.012564)
 59:   1437.50   0.001262    6.38  0.000274  ( 0.014092 -0.006744 -0.005478)
 60:   1448.17   0.007522   38.01  0.001621  ( 0.009126 -0.025729  0.029589)
 61:   1461.16   0.019472   98.40  0.004159  ( 0.047356 -0.036486  0.024185)
 62:   1471.45   0.025748  130.12  0.005461  ( 0.067629  0.007348 -0.028860)
 63:   1494.42   0.003195   16.15  0.000667  ( 0.019670  0.016642 -0.001820)
 64:   1500.46   0.001149    5.81  0.000239  (-0.007784 -0.000181 -0.013354)
 65:   1505.87   0.000348    1.76  0.000072  (-0.000460 -0.002053 -0.008223)
 66:   1516.93   0.001699    8.58  0.000349  ( 0.003135  0.002432 -0.018268)
 67:   1517.10   0.000110    0.55  0.000023  ( 0.000190  0.004631 -0.001044)
 68:   1519.04   0.003410   17.23  0.000701  (-0.017196  0.019454  0.005138)
 69:   1523.67   0.000836    4.22  0.000171  ( 0.012805  0.002427 -0.001129)
 70:   1530.07   0.005626   28.43  0.001147  (-0.026590 -0.003284  0.020728)
 71:   1533.00   0.002853   14.42  0.000581  (-0.003187 -0.014127 -0.019261)
 72:   1536.47   0.001835    9.27  0.000373  ( 0.013428  0.013766  0.001690)
 73:   1538.78   0.003988   20.15  0.000809  (-0.005505 -0.027044  0.006860)
 74:   1542.45   0.001613    8.15  0.000326  ( 0.005373  0.012215  0.012175)
 75:   1569.23   0.009198   46.48  0.001829  ( 0.020443 -0.017716  0.033125)
 76:   1745.58   0.032861  166.07  0.005875  (-0.032984 -0.023025  0.065243)
 77:   1748.25   0.082578  417.31  0.014740  (-0.084670 -0.081358  0.030854)
 78:   3006.48   0.009167   46.32  0.000951  (-0.029090  0.010134 -0.001585)
 79:   3018.94   0.004790   24.20  0.000495  ( 0.015852  0.005370 -0.014661)
 80:   3026.66   0.013714   69.31  0.001414  (-0.013306  0.007220 -0.034422)
 81:   3036.38   0.007921   40.03  0.000814  (-0.002073 -0.019665  0.020569)
 82:   3060.73   0.000570    2.88  0.000058  ( 0.000223  0.007476  0.001461)
 83:   3073.00   0.005660   28.60  0.000575  (-0.004476  0.009055 -0.021743)
 84:   3073.29   0.008832   44.63  0.000897  ( 0.001969  0.029546  0.004462)
 85:   3082.18   0.003183   16.09  0.000322  (-0.004299  0.006774  0.016060)
 86:   3083.57   0.008773   44.33  0.000888  (-0.007061  0.028246  0.006334)
 87:   3084.07   0.004032   20.38  0.000408  (-0.015051  0.002911  0.013151)
 88:   3089.37   0.006782   34.27  0.000685  (-0.001772  0.020845 -0.015728)
 89:   3125.25   0.002117   10.70  0.000211  ( 0.005928 -0.000063  0.013275)
 90:   3136.65   0.005104   25.79  0.000508  (-0.021436  0.001715  0.006731)
 91:   3139.79   0.007338   37.08  0.000729  ( 0.007973  0.025693  0.002363)
 92:   3166.84   0.000476    2.40  0.000047  (-0.004280  0.005009 -0.001857)
 93:   3177.01   0.001287    6.51  0.000126  ( 0.010052  0.004518 -0.002232)
 94:   3186.58   0.001792    9.06  0.000175  ( 0.008889 -0.009808  0.000515)
 95:   3190.85   0.000134    0.68  0.000013  (-0.003464 -0.000854  0.000596)

--------------------------
THERMOCHEMISTRY AT 298.15K
--------------------------

Temperature         ... 298.15 K
Pressure            ... 1.00 atm
Total Mass          ... 202.25 AMU

Throughout the following assumptions are being made:
  (1) The electronic state is orbitally nondegenerate
  (2) There are no thermally accessible electronically excited states
  (3) Hindered rotations indicated by low frequency modes are not
      treated as such but are treated as vibrations and this may
      cause some error
  (4) All equations used are the standard statistical mechanics
      equations for an ideal gas
  (5) All vibrations are strictly harmonic

freq.      33.22  E(vib)   ...       0.55
freq.      57.96  E(vib)   ...       0.51
freq.      60.44  E(vib)   ...       0.51
freq.      82.91  E(vib)   ...       0.48
freq.      86.86  E(vib)   ...       0.48
freq.      99.40  E(vib)   ...       0.46
freq.     111.65  E(vib)   ...       0.45
freq.     129.33  E(vib)   ...       0.43
freq.     144.34  E(vib)   ...       0.41
freq.     149.42  E(vib)   ...       0.40
freq.     169.91  E(vib)   ...       0.38
freq.     177.78  E(vib)   ...       0.37
freq.     227.76  E(vib)   ...       0.33
freq.     243.44  E(vib)   ...       0.31
freq.     280.50  E(vib)   ...       0.28
freq.     320.41  E(vib)   ...       0.25
freq.     365.64  E(vib)   ...       0.22
freq.     371.20  E(vib)   ...       0.21
freq.     384.67  E(vib)   ...       0.20
freq.     429.66  E(vib)   ...       0.18
freq.     451.42  E(vib)   ...       0.16
freq.     471.18  E(vib)   ...       0.15
freq.     490.46  E(vib)   ...       0.15
freq.     582.88  E(vib)   ...       0.11
freq.     596.21  E(vib)   ...       0.10
freq.     636.97  E(vib)   ...       0.09
freq.     703.09  E(vib)   ...       0.07
freq.     767.21  E(vib)   ...       0.06
freq.     794.19  E(vib)   ...       0.05
freq.     830.44  E(vib)   ...       0.04
freq.     955.26  E(vib)   ...       0.03
freq.     971.87  E(vib)   ...       0.03
freq.    1005.17  E(vib)   ...       0.02
freq.    1012.34  E(vib)   ...       0.02
freq.    1040.93  E(vib)   ...       0.02
freq.    1063.87  E(vib)   ...       0.02
freq.    1066.31  E(vib)   ...       0.02
freq.    1095.53  E(vib)   ...       0.02
freq.    1121.17  E(vib)   ...       0.01
freq.    1140.94  E(vib)   ...       0.01
freq.    1150.29  E(vib)   ...       0.01
freq.    1183.16  E(vib)   ...       0.01
freq.    1189.37  E(vib)   ...       0.01
freq.    1201.83  E(vib)   ...       0.01
freq.    1232.80  E(vib)   ...       0.01
freq.    1245.02  E(vib)   ...       0.01
freq.    1285.87  E(vib)   ...       0.01
freq.    1291.26  E(vib)   ...       0.01
freq.    1311.56  E(vib)   ...       0.01
freq.    1346.14  E(vib)   ...       0.01
freq.    1360.99  E(vib)   ...       0.01
freq.    1383.22  E(vib)   ...       0.00
freq.    1417.27  E(vib)   ...       0.00
freq.    1437.50  E(vib)   ...       0.00
freq.    1448.17  E(vib)   ...       0.00
freq.    1461.16  E(vib)   ...       0.00
freq.    1471.45  E(vib)   ...       0.00
freq.    1494.42  E(vib)   ...       0.00
freq.    1500.46  E(vib)   ...       0.00
freq.    1505.87  E(vib)   ...       0.00
freq.    1516.93  E(vib)   ...       0.00
freq.    1517.10  E(vib)   ...       0.00
freq.    1519.04  E(vib)   ...       0.00
freq.    1523.67  E(vib)   ...       0.00
freq.    1530.07  E(vib)   ...       0.00
freq.    1533.00  E(vib)   ...       0.00
freq.    1536.47  E(vib)   ...       0.00
freq.    1538.78  E(vib)   ...       0.00
freq.    1542.45  E(vib)   ...       0.00
freq.    1569.23  E(vib)   ...       0.00
freq.    1745.58  E(vib)   ...       0.00
freq.    1748.25  E(vib)   ...       0.00
freq.    3006.48  E(vib)   ...       0.00
freq.    3018.94  E(vib)   ...       0.00
freq.    3026.66  E(vib)   ...       0.00
freq.    3036.38  E(vib)   ...       0.00
freq.    3060.73  E(vib)   ...       0.00
freq.    3073.00  E(vib)   ...       0.00
freq.    3073.29  E(vib)   ...       0.00
freq.    3082.18  E(vib)   ...       0.00
freq.    3083.57  E(vib)   ...       0.00
freq.    3084.07  E(vib)   ...       0.00
freq.    3089.37  E(vib)   ...       0.00
freq.    3125.25  E(vib)   ...       0.00
freq.    3136.65  E(vib)   ...       0.00
freq.    3139.79  E(vib)   ...       0.00
freq.    3166.84  E(vib)   ...       0.00
freq.    3177.01  E(vib)   ...       0.00
freq.    3186.58  E(vib)   ...       0.00
freq.    3190.85  E(vib)   ...       0.00

------------
INNER ENERGY
------------

The inner energy is: U= E(el) + E(ZPE) + E(vib) + E(rot) + E(trans)
    E(el)   - is the total energy from the electronic structure calculation
              = E(kin-el) + E(nuc-el) + E(el-el) + E(nuc-nuc)
    E(ZPE)  - the the zero temperature vibrational energy from the frequency calculation
    E(vib)  - the the finite temperature correction to E(ZPE) due to population
              of excited vibrational states
    E(rot)  - is the rotational thermal energy
    E(trans)- is the translational thermal energy

Summary of contributions to the inner energy U:
Electronic energy                ...   -688.60602428 Eh
Zero point energy                ...      0.27843762 Eh     174.72 kcal/mol
Thermal vibrational correction   ...      0.01393577 Eh       8.74 kcal/mol
Thermal rotational correction    ...      0.00141627 Eh       0.89 kcal/mol
Thermal translational correction ...      0.00141627 Eh       0.89 kcal/mol
-----------------------------------------------------------------------
Total thermal energy                   -688.31081834 Eh

Summary of corrections to the electronic energy:
(perhaps to be used in another calculation)
Total thermal correction                  0.01676832 Eh      10.52 kcal/mol
Non-thermal (ZPE) correction              0.27843762 Eh     174.72 kcal/mol
-----------------------------------------------------------------------
Total correction                          0.29520593 Eh     185.24 kcal/mol

--------
ENTHALPY
--------

The enthalpy is H = U + kB*T
                kB is Boltzmann's constant
Total free energy                 ...   -688.31081834 Eh
Thermal Enthalpy correction       ...      0.00094421 Eh       0.59 kcal/mol
-----------------------------------------------------------------------
Total Enthalpy                    ...   -688.30987414 Eh

Note: Only C1 symmetry has been detected, increase convergence thresholds
      if your molecule has a higher symmetry. Symmetry factor of 1.0 is
      used for the rotational entropy correction.

Note: Rotational entropy computed according to Herzberg
Infrared and Raman Spectra, Chapter V,1, Van Nostrand Reinhold, 1945
Point Group:  C1, Symmetry Number:   1
Rotational constants in cm-1:     0.023661     0.020391     0.013488

                             ****ORCA TERMINATED NORMALLY****
TOTAL RUN TIME: 0 days 0 hours 19 minutes 25 seconds 682 msec
