                         Program Version 5.0.4 -  RELEASE  -
|  1> ! OPT FREQ B3LYP 6-31G(d) D4 AUTOAUX CPCM(water)
|  2>
|  3> %PAL NPROCS 4 END
|  4>
|  5> %maxcore 3375
|  6>
|  7> *xyzfile 0 1 /users/fjb15167/WWenergy/structures/Nab.xyz
|  8>
|  9>                          ****END OF INPUT****
 Total Charge           Charge          ....    0
 Multiplicity           Mult            ....    1
 Number of Electrons    NEL             ....  110
Dispersion correction           -0.055306369
FINAL SINGLE POINT ENERGY      -652.740886311892
Dispersion correction            ... Starting D4
Dispersion correction           -0.054798274
FINAL SINGLE POINT ENERGY      -652.741403973738
Dispersion correction            ... Starting D4
Dispersion correction           -0.055180827
FINAL SINGLE POINT ENERGY      -652.741551832578
Dispersion correction            ... Starting D4
FINAL SINGLE POINT ENERGY      -652.741619911859
FINAL SINGLE POINT ENERGY      -652.741667069110
FINAL SINGLE POINT ENERGY      -652.741690320071
FINAL SINGLE POINT ENERGY      -652.741697528797
FINAL SINGLE POINT ENERGY      -652.741702498110
FINAL SINGLE POINT ENERGY      -652.741705414947
FINAL SINGLE POINT ENERGY      -652.741711008813
Dispersion correction           -0.055308319
FINAL SINGLE POINT ENERGY      -652.741713192865
Dispersion correction            ... Starting D4
Dispersion correction           -0.055288275
FINAL SINGLE POINT ENERGY      -652.741716116925
Dispersion correction            ... Starting D4
                    ***********************HURRAY********************

CARTESIAN COORDINATES (ANGSTROEM)
---------------------------------
  C     -0.502628    3.135442   -0.649334
  H      0.363031    2.790390   -1.222775
  H     -0.132883    3.777783    0.158688
  H     -1.151922    3.725846   -1.297659
  C     -1.320794    1.984267   -0.092184
  O     -2.542285    1.923217   -0.291506
  N     -0.659825    1.031972    0.631817
  C     -1.422770   -0.046933    1.253939
  H     -1.328486    0.018663    2.342404
  H     -2.470383    0.089210    0.983420
  C      0.781237    1.076704    0.915288
  H      1.096750    2.119779    1.000852
  H      0.928681    0.623310    1.901863
  C      1.649135    0.350872   -0.121330
  H      1.376790   -0.710268   -0.154638
  H      1.443928    0.759346   -1.119862
  C     -0.910040   -1.443554    0.881500
  N     -1.067129   -1.868347   -0.400147
  O     -0.364892   -2.133448    1.753833
  C     -1.623306   -1.069498   -1.486140
  H     -0.822838   -0.644036   -2.106528
  H     -2.239841   -1.717989   -2.117869
  H     -2.245813   -0.257451   -1.114326
  C     -0.462630   -3.130921   -0.810233
  H      0.402639   -2.946412   -1.461684
  H     -0.138175   -3.673639    0.075954
  H     -1.194663   -3.727856   -1.365240
  C      3.142803    0.480355    0.195541
  H      3.417439    1.544482    0.225674
  H      3.334918    0.082755    1.202390
  C      4.023886   -0.250835   -0.821798
  H      3.785281   -1.321634   -0.850039
  H      3.873542    0.150219   -1.832167
  H      5.087242   -0.149792   -0.574702

 Multiplicity           Mult            ....    1
 Number of Electrons    NEL             ....  110
 Basis Dimension        Dim             ....  236

ORBITAL ENERGIES
----------------

  NO   OCC          E(Eh)            E(eV)
   0   2.0000     -19.108395      -519.9659
   1   2.0000     -19.106570      -519.9162
   2   2.0000     -14.359416      -390.7396
   3   2.0000     -14.358254      -390.7079
   4   2.0000     -10.282397      -279.7982
   5   2.0000     -10.278931      -279.7039
   6   2.0000     -10.210096      -277.8308
   7   2.0000     -10.207650      -277.7643
   8   2.0000     -10.198052      -277.5031
   9   2.0000     -10.195199      -277.4255
  10   2.0000     -10.172293      -276.8022
  11   2.0000     -10.167855      -276.6814
  12   2.0000     -10.167290      -276.6660
  13   2.0000     -10.157610      -276.4026
  14   2.0000      -1.031191       -28.0601
  15   2.0000      -1.024505       -27.8782
  16   2.0000      -0.933078       -25.3904
  17   2.0000      -0.925063       -25.1722
  18   2.0000      -0.788686       -21.4612
  19   2.0000      -0.757135       -20.6027
  20   2.0000      -0.725125       -19.7317
  21   2.0000      -0.713657       -19.4196
  22   2.0000      -0.703587       -19.1456
  23   2.0000      -0.669895       -18.2288
  24   2.0000      -0.638588       -17.3769
  25   2.0000      -0.577648       -15.7186
  26   2.0000      -0.550381       -14.9766
  27   2.0000      -0.534481       -14.5440
  28   2.0000      -0.508705       -13.8426
  29   2.0000      -0.485426       -13.2091
  30   2.0000      -0.476144       -12.9565
  31   2.0000      -0.463872       -12.6226
  32   2.0000      -0.456063       -12.4101
  33   2.0000      -0.451954       -12.2983
  34   2.0000      -0.446522       -12.1505
  35   2.0000      -0.419532       -11.4160
  36   2.0000      -0.407433       -11.0868
  37   2.0000      -0.405034       -11.0215
  38   2.0000      -0.402054       -10.9404
  39   2.0000      -0.395479       -10.7615
  40   2.0000      -0.394556       -10.7364
  41   2.0000      -0.392258       -10.6739
  42   2.0000      -0.387122       -10.5341
  43   2.0000      -0.375280       -10.2119
  44   2.0000      -0.372948       -10.1484
  45   2.0000      -0.362767        -9.8714
  46   2.0000      -0.348629        -9.4867
  47   2.0000      -0.348159        -9.4739
  48   2.0000      -0.333730        -9.0813
  49   2.0000      -0.325772        -8.8647
  50   2.0000      -0.318750        -8.6736
  51   2.0000      -0.257246        -7.0000
  52   2.0000      -0.251345        -6.8394
  53   2.0000      -0.236339        -6.4311
  54   2.0000      -0.234214        -6.3733
  55   0.0000       0.017508         0.4764
  56   0.0000       0.029645         0.8067
  57   0.0000       0.084991         2.3127
  58   0.0000       0.103746         2.8231
  59   0.0000       0.111043         3.0216

MULLIKEN ATOMIC CHARGES
-----------------------
   0 C :   -0.564149
   1 H :    0.194012
   2 H :    0.198371
   3 H :    0.180267
   4 C :    0.530347
   5 O :   -0.541383
   6 N :   -0.368228
   7 C :   -0.252782
   8 H :    0.179986
   9 H :    0.204799
  10 C :   -0.169011
  11 H :    0.177041
  12 H :    0.171801
  13 C :   -0.270578
  14 H :    0.156860
  15 H :    0.151198
  16 C :    0.521105
  17 N :   -0.358985
  18 O :   -0.547702
  19 C :   -0.345273
  20 H :    0.172272
  21 H :    0.173883
  22 H :    0.192788
  23 C :   -0.331859
  24 H :    0.172052
  25 H :    0.184215
  26 H :    0.173194
  27 C :   -0.253726
  28 H :    0.140343
  29 H :    0.140501
  30 C :   -0.454396
  31 H :    0.148009
  32 H :    0.147678
  33 H :    0.147350
Sum of atomic charges:   -0.0000000

LOEWDIN ATOMIC CHARGES
----------------------
   0 C :   -0.393033
   1 H :    0.153237
   2 H :    0.158325
   3 H :    0.149685
   4 C :    0.114988
   5 O :   -0.343179
   6 N :   -0.067524
   7 C :   -0.179433
   8 H :    0.144818
   9 H :    0.160356
  10 C :   -0.158513
  11 H :    0.141151
  12 H :    0.138977
  13 C :   -0.243914
  14 H :    0.129485
  15 H :    0.125131
  16 C :    0.094150
  17 N :   -0.069385
  18 O :   -0.342516
  19 C :   -0.284872
  20 H :    0.132145
  21 H :    0.137813
  22 H :    0.147847
  23 C :   -0.280488
  24 H :    0.132591
  25 H :    0.146957
  26 H :    0.136731
  27 C :   -0.233012
  28 H :    0.121267
  29 H :    0.121755
  30 C :   -0.366921
  31 H :    0.124509
  32 H :    0.124481
  33 H :    0.126389

  Mayer bond orders larger than 0.100000
B(  0-C ,  1-H ) :   0.9195 B(  0-C ,  2-H ) :   0.9201 B(  0-C ,  3-H ) :   0.9387
B(  0-C ,  4-C ) :   0.9942 B(  4-C ,  5-O ) :   1.7380 B(  4-C ,  6-N ) :   1.1717
B(  6-N ,  7-C ) :   0.9537 B(  6-N , 10-C ) :   0.9237 B(  7-C ,  8-H ) :   0.9161
B(  7-C ,  9-H ) :   0.8922 B(  7-C , 16-C ) :   0.9393 B( 10-C , 11-H ) :   0.9221
B( 10-C , 12-H ) :   0.9238 B( 10-C , 13-C ) :   0.9921 B( 13-C , 14-H ) :   0.9258
B( 13-C , 15-H ) :   0.9301 B( 13-C , 27-C ) :   1.0060 B( 16-C , 17-N ) :   1.1965
B( 16-C , 18-O ) :   1.7506 B( 17-N , 18-O ) :   0.1014 B( 17-N , 19-C ) :   0.9501
B( 17-N , 23-C ) :   0.9479 B( 19-C , 20-H ) :   0.9289 B( 19-C , 21-H ) :   0.9345
B( 19-C , 22-H ) :   0.9047 B( 23-C , 24-H ) :   0.9338 B( 23-C , 25-H ) :   0.9255
B( 23-C , 26-H ) :   0.9368 B( 27-C , 28-H ) :   0.9412 B( 27-C , 29-H ) :   0.9411
B( 27-C , 30-C ) :   1.0197 B( 30-C , 31-H ) :   0.9511 B( 30-C , 32-H ) :   0.9515
B( 30-C , 33-H ) :   0.9515

Dispersion correction           -0.055283239
FINAL SINGLE POINT ENERGY      -652.741717699704

DIPOLE MOMENT
-------------
                                X             Y             Z
Electronic contribution:    -12.78540      -0.13505       6.64701
Nuclear contribution   :     14.09318       0.63278      -7.82974
                        -----------------------------------------
Total Dipole Moment    :      1.30778       0.49773      -1.18273
                        -----------------------------------------
Magnitude (a.u.)       :      1.83217
Magnitude (Debye)      :      4.65702

Dispersion correction in the Hessian             ... Starting D4

VIBRATIONAL FREQUENCIES
-----------------------

Scaling factor for frequencies =  1.000000000  (already applied!)

   0:         0.00 cm**-1
   1:         0.00 cm**-1
   2:         0.00 cm**-1
   3:         0.00 cm**-1
   4:         0.00 cm**-1
   5:         0.00 cm**-1
   6:        42.19 cm**-1
   7:        46.74 cm**-1
   8:        53.48 cm**-1
   9:        74.64 cm**-1
  10:        80.34 cm**-1
  11:        88.02 cm**-1
  12:       104.22 cm**-1
  13:       127.79 cm**-1
  14:       141.33 cm**-1
  15:       160.29 cm**-1
  16:       168.44 cm**-1
  17:       204.61 cm**-1
  18:       240.02 cm**-1
  19:       247.30 cm**-1
  20:       264.65 cm**-1
  21:       279.57 cm**-1
  22:       342.11 cm**-1
  23:       360.64 cm**-1
  24:       388.50 cm**-1
  25:       427.18 cm**-1
  26:       443.26 cm**-1
  27:       457.13 cm**-1
  28:       498.86 cm**-1
  29:       579.62 cm**-1
  30:       600.34 cm**-1
  31:       634.40 cm**-1
  32:       702.48 cm**-1
  33:       737.40 cm**-1
  34:       761.52 cm**-1
  35:       796.90 cm**-1
  36:       824.17 cm**-1
  37:       918.02 cm**-1
  38:       950.55 cm**-1
  39:       958.68 cm**-1
  40:      1003.11 cm**-1
  41:      1009.80 cm**-1
  42:      1028.19 cm**-1
  43:      1061.81 cm**-1
  44:      1068.00 cm**-1
  45:      1079.24 cm**-1
  46:      1090.54 cm**-1
  47:      1134.93 cm**-1
  48:      1138.45 cm**-1
  49:      1157.03 cm**-1
  50:      1183.04 cm**-1
  51:      1201.31 cm**-1
  52:      1233.02 cm**-1
  53:      1267.00 cm**-1
  54:      1286.55 cm**-1
  55:      1292.70 cm**-1
  56:      1309.06 cm**-1
  57:      1336.06 cm**-1
  58:      1348.52 cm**-1
  59:      1369.62 cm**-1
  60:      1398.74 cm**-1
  61:      1410.50 cm**-1
  62:      1424.93 cm**-1
  63:      1429.03 cm**-1
  64:      1440.08 cm**-1
  65:      1456.52 cm**-1
  66:      1475.26 cm**-1
  67:      1484.52 cm**-1
  68:      1489.23 cm**-1
  69:      1497.29 cm**-1
  70:      1501.63 cm**-1
  71:      1503.99 cm**-1
  72:      1510.38 cm**-1
  73:      1512.21 cm**-1
  74:      1513.23 cm**-1
  75:      1517.56 cm**-1
  76:      1526.70 cm**-1
  77:      1528.72 cm**-1
  78:      1536.78 cm**-1
  79:      1554.32 cm**-1
  80:      1700.15 cm**-1
  81:      1710.19 cm**-1
  82:      3024.12 cm**-1
  83:      3035.30 cm**-1
  84:      3035.89 cm**-1
  85:      3040.10 cm**-1
  86:      3045.57 cm**-1
  87:      3054.11 cm**-1
  88:      3064.41 cm**-1
  89:      3074.50 cm**-1
  90:      3084.01 cm**-1
  91:      3093.08 cm**-1
  92:      3098.96 cm**-1
  93:      3101.05 cm**-1
  94:      3101.45 cm**-1
  95:      3105.90 cm**-1
  96:      3129.24 cm**-1
  97:      3130.64 cm**-1
  98:      3160.67 cm**-1
  99:      3170.94 cm**-1
 100:      3190.48 cm**-1
 101:      3194.19 cm**-1

IR SPECTRUM
-----------

 Mode   freq       eps      Int      T**2         TX        TY        TZ
       cm**-1   L/(mol*cm) km/mol    a.u.
----------------------------------------------------------------------------
  6:     42.19   0.000693    3.50  0.005124  ( 0.070808 -0.007625 -0.007245)
  7:     46.74   0.000077    0.39  0.000511  (-0.010534 -0.002058  0.019900)
  8:     53.48   0.000734    3.71  0.004280  (-0.045440 -0.036597  0.029597)
  9:     74.64   0.001369    6.92  0.005723  ( 0.044103  0.045293 -0.041549)
 10:     80.34   0.000040    0.20  0.000157  ( 0.005090  0.011102 -0.002837)
 11:     88.02   0.000019    0.10  0.000067  (-0.000136 -0.001381 -0.008050)
 12:    104.22   0.002270   11.47  0.006798  ( 0.008931 -0.065009 -0.049920)
 13:    127.79   0.001134    5.73  0.002768  (-0.010564 -0.043103 -0.028265)
 14:    141.33   0.000898    4.54  0.001982  ( 0.003622  0.043485  0.008842)
 15:    160.29   0.000155    0.79  0.000303  ( 0.010253  0.007548 -0.011853)
 16:    168.44   0.000078    0.40  0.000145  ( 0.004558  0.000628 -0.011129)
 17:    204.61   0.000207    1.04  0.000315  (-0.014572 -0.003224  0.009607)
 18:    240.02   0.000716    3.62  0.000931  (-0.013817 -0.026603  0.005694)
 19:    247.30   0.000197    1.00  0.000249  (-0.011465 -0.010775  0.001059)
 20:    264.65   0.001444    7.30  0.001703  (-0.037231 -0.017785 -0.000732)
 21:    279.57   0.001088    5.50  0.001214  ( 0.018596  0.024756  0.015990)
 22:    342.11   0.001960    9.91  0.001788  (-0.003088  0.027329  0.032121)
 23:    360.64   0.001696    8.57  0.001468  (-0.009224  0.013391 -0.034690)
 24:    388.50   0.001879    9.49  0.001509  (-0.011982  0.017844  0.032357)
 25:    427.18   0.000832    4.20  0.000608  (-0.004383  0.022720  0.008500)
 26:    443.26   0.001592    8.05  0.001121  ( 0.010654 -0.027667 -0.015553)
 27:    457.13   0.002759   13.94  0.001883  ( 0.041070 -0.013445  0.003992)
 28:    498.86   0.004751   24.01  0.002972  (-0.033998 -0.036665  0.021715)
 29:    579.62   0.003790   19.15  0.002041  (-0.017446  0.039642  0.012841)
 30:    600.34   0.001968    9.95  0.001023  (-0.021325  0.022613  0.007548)
 31:    634.40   0.004950   25.02  0.002435  (-0.005942  0.000414 -0.048985)
 32:    702.48   0.000833    4.21  0.000370  (-0.012218 -0.001190 -0.014807)
 33:    737.40   0.002429   12.28  0.001028  (-0.003631 -0.028520  0.014194)
 34:    761.52   0.002721   13.75  0.001115  ( 0.005906  0.023934  0.022520)
 35:    796.90   0.001486    7.51  0.000582  (-0.013646 -0.012959 -0.015095)
 36:    824.17   0.004179   21.12  0.001582  ( 0.020728  0.007472  0.033119)
 37:    918.02   0.000686    3.47  0.000233  (-0.014081  0.003158  0.005007)
 38:    950.55   0.002171   10.97  0.000713  ( 0.001491  0.019426 -0.018253)
 39:    958.68   0.000626    3.16  0.000204  (-0.010788 -0.009043 -0.002383)
 40:   1003.11   0.006776   34.24  0.002108  ( 0.006591 -0.022387 -0.039539)
 41:   1009.80   0.005345   27.01  0.001652  (-0.031132  0.021757 -0.014470)
 42:   1028.19   0.004610   23.29  0.001399  (-0.023226  0.021675  0.019743)
 43:   1061.81   0.001865    9.43  0.000548  (-0.002289  0.015064  0.017779)
 44:   1068.00   0.000453    2.29  0.000132  ( 0.007865 -0.007332 -0.004100)
 45:   1079.24   0.007091   35.84  0.002050  (-0.013217  0.024361 -0.035809)
 46:   1090.54   0.001410    7.12  0.000403  ( 0.012499 -0.015651  0.001479)
 47:   1134.93   0.000534    2.70  0.000147  (-0.000103  0.011612 -0.003443)
 48:   1138.45   0.002649   13.39  0.000726  (-0.016884 -0.001773 -0.020926)
 49:   1157.03   0.009145   46.22  0.002467  (-0.017876 -0.027585 -0.037229)
 50:   1183.04   0.002322   11.74  0.000613  ( 0.009753  0.002122  0.022649)
 51:   1201.31   0.010318   52.14  0.002680  (-0.008260  0.007009 -0.050625)
 52:   1233.02   0.004203   21.24  0.001064  (-0.024255  0.007701  0.020397)
 53:   1267.00   0.021967  111.01  0.005410  (-0.023843  0.060183 -0.034928)
 54:   1286.55   0.012205   61.68  0.002960  (-0.020510  0.042216  0.027524)
 55:   1292.70   0.022735  114.90  0.005488  (-0.001073 -0.066161  0.033316)
 56:   1309.06   0.000689    3.48  0.000164  ( 0.007869 -0.010030 -0.001351)
 57:   1336.06   0.001900    9.60  0.000444  ( 0.016748 -0.012220  0.003726)
 58:   1348.52   0.002123   10.73  0.000491  (-0.013962  0.016974 -0.002854)
 59:   1369.62   0.000652    3.29  0.000148  (-0.007309  0.000879 -0.009710)
 60:   1398.74   0.001083    5.47  0.000242  ( 0.015096 -0.001371  0.003439)
 61:   1410.50   0.004399   22.23  0.000973  ( 0.027819  0.008803 -0.011037)
 62:   1424.93   0.007581   38.31  0.001660  (-0.034777  0.018620 -0.010204)
 63:   1429.03   0.000754    3.81  0.000165  (-0.008517  0.002414 -0.009287)
 64:   1440.08   0.014382   72.68  0.003117  (-0.004097 -0.022973 -0.050716)
 65:   1456.52   0.017972   90.82  0.003851  ( 0.005343 -0.050267 -0.035989)
 66:   1475.26   0.047777  241.45  0.010106  (-0.051307  0.074154 -0.044442)
 67:   1484.52   0.003722   18.81  0.000782  ( 0.022260  0.016889  0.001267)
 68:   1489.23   0.000811    4.10  0.000170  ( 0.008824  0.002845 -0.009166)
 69:   1497.29   0.001767    8.93  0.000368  (-0.001643 -0.013689  0.013350)
 70:   1501.63   0.001245    6.29  0.000259  ( 0.001974  0.005001  0.015163)
 71:   1503.99   0.005967   30.16  0.001238  ( 0.006710  0.024749 -0.024097)
 72:   1510.38   0.001057    5.34  0.000218  ( 0.009443 -0.011279  0.001445)
 73:   1512.21   0.002315   11.70  0.000478  ( 0.002694 -0.020946  0.005635)
 74:   1513.23   0.000775    3.92  0.000160  ( 0.000931  0.009806 -0.007920)
 75:   1517.56   0.002991   15.11  0.000615  (-0.019264 -0.013454 -0.007927)
 76:   1526.70   0.000949    4.80  0.000194  (-0.002275 -0.012242  0.006239)
 77:   1528.72   0.006781   34.27  0.001384  ( 0.036244  0.008396 -0.000458)
 78:   1536.78   0.004393   22.20  0.000892  (-0.001187 -0.004383  0.029520)
 79:   1554.32   0.017546   88.67  0.003523  ( 0.010205 -0.039144 -0.043432)
 80:   1700.15   0.145086  733.21  0.026631  ( 0.142405 -0.034854  0.071671)
 81:   1710.19   0.093363  471.82  0.017036  ( 0.019324 -0.034339  0.124433)
 82:   3024.12   0.009075   45.86  0.000936  (-0.009143 -0.016333 -0.024209)
 83:   3035.30   0.003789   19.15  0.000390  ( 0.006793 -0.017006  0.007361)
 84:   3035.89   0.008158   41.23  0.000839  ( 0.019776 -0.016148 -0.013666)
 85:   3040.10   0.018068   91.31  0.001855  ( 0.013318 -0.006240 -0.040476)
 86:   3045.57   0.007908   39.97  0.000810  (-0.006958 -0.012943 -0.024380)
 87:   3054.11   0.006590   33.30  0.000673  ( 0.002632 -0.012839  0.022396)
 88:   3064.41   0.000614    3.10  0.000063  (-0.003940 -0.005347  0.004290)
 89:   3074.50   0.010190   51.50  0.001034  ( 0.015717  0.009161  0.026520)
 90:   3084.01   0.009620   48.62  0.000973  ( 0.001701  0.007389 -0.030265)
 91:   3093.08   0.000521    2.63  0.000053  (-0.003709  0.006022 -0.001582)
 92:   3098.96   0.016546   83.61  0.001666  (-0.032579 -0.022044 -0.010900)
 93:   3101.05   0.025462  128.68  0.002562  ( 0.004561  0.043563 -0.025372)
 94:   3101.45   0.000911    4.60  0.000092  (-0.005941 -0.007342 -0.001564)
 95:   3105.90   0.013381   67.62  0.001344  ( 0.030913  0.008830  0.017630)
 96:   3129.24   0.009907   50.06  0.000988  (-0.003518 -0.031078  0.003122)
 97:   3130.64   0.004097   20.71  0.000408  (-0.006251 -0.011651  0.015284)
 98:   3160.67   0.001906    9.63  0.000188  ( 0.000142 -0.012673 -0.005251)
 99:   3170.94   0.002943   14.87  0.000290  (-0.012724  0.008513 -0.007436)
100:   3190.48   0.000668    3.38  0.000065  ( 0.004762  0.006193 -0.002081)
101:   3194.19   0.000924    4.67  0.000090  (-0.004797  0.006900 -0.004437)

--------------------------
THERMOCHEMISTRY AT 298.15K
--------------------------

Temperature         ... 298.15 K
Pressure            ... 1.00 atm
Total Mass          ... 200.28 AMU

Throughout the following assumptions are being made:
  (1) The electronic state is orbitally nondegenerate
  (2) There are no thermally accessible electronically excited states
  (3) Hindered rotations indicated by low frequency modes are not
      treated as such but are treated as vibrations and this may
      cause some error
  (4) All equations used are the standard statistical mechanics
      equations for an ideal gas
  (5) All vibrations are strictly harmonic

freq.      42.19  E(vib)   ...       0.53
freq.      46.74  E(vib)   ...       0.53
freq.      53.48  E(vib)   ...       0.52
freq.      74.64  E(vib)   ...       0.49
freq.      80.34  E(vib)   ...       0.49
freq.      88.02  E(vib)   ...       0.48
freq.     104.22  E(vib)   ...       0.46
freq.     127.79  E(vib)   ...       0.43
freq.     141.33  E(vib)   ...       0.41
freq.     160.29  E(vib)   ...       0.39
freq.     168.44  E(vib)   ...       0.38
freq.     204.61  E(vib)   ...       0.35
freq.     240.02  E(vib)   ...       0.31
freq.     247.30  E(vib)   ...       0.31
freq.     264.65  E(vib)   ...       0.29
freq.     279.57  E(vib)   ...       0.28
freq.     342.11  E(vib)   ...       0.23
freq.     360.64  E(vib)   ...       0.22
freq.     388.50  E(vib)   ...       0.20
freq.     427.18  E(vib)   ...       0.18
freq.     443.26  E(vib)   ...       0.17
freq.     457.13  E(vib)   ...       0.16
freq.     498.86  E(vib)   ...       0.14
freq.     579.62  E(vib)   ...       0.11
freq.     600.34  E(vib)   ...       0.10
freq.     634.40  E(vib)   ...       0.09
freq.     702.48  E(vib)   ...       0.07
freq.     737.40  E(vib)   ...       0.06
freq.     761.52  E(vib)   ...       0.06
freq.     796.90  E(vib)   ...       0.05
freq.     824.17  E(vib)   ...       0.05
freq.     918.02  E(vib)   ...       0.03
freq.     950.55  E(vib)   ...       0.03
freq.     958.68  E(vib)   ...       0.03
freq.    1003.11  E(vib)   ...       0.02
freq.    1009.80  E(vib)   ...       0.02
freq.    1028.19  E(vib)   ...       0.02
freq.    1061.81  E(vib)   ...       0.02
freq.    1068.00  E(vib)   ...       0.02
freq.    1079.24  E(vib)   ...       0.02
freq.    1090.54  E(vib)   ...       0.02
freq.    1134.93  E(vib)   ...       0.01
freq.    1138.45  E(vib)   ...       0.01
freq.    1157.03  E(vib)   ...       0.01
freq.    1183.04  E(vib)   ...       0.01
freq.    1201.31  E(vib)   ...       0.01
freq.    1233.02  E(vib)   ...       0.01
freq.    1267.00  E(vib)   ...       0.01
freq.    1286.55  E(vib)   ...       0.01
freq.    1292.70  E(vib)   ...       0.01
freq.    1309.06  E(vib)   ...       0.01
freq.    1336.06  E(vib)   ...       0.01
freq.    1348.52  E(vib)   ...       0.01
freq.    1369.62  E(vib)   ...       0.01
freq.    1398.74  E(vib)   ...       0.00
freq.    1410.50  E(vib)   ...       0.00
freq.    1424.93  E(vib)   ...       0.00
freq.    1429.03  E(vib)   ...       0.00
freq.    1440.08  E(vib)   ...       0.00
freq.    1456.52  E(vib)   ...       0.00
freq.    1475.26  E(vib)   ...       0.00
freq.    1484.52  E(vib)   ...       0.00
freq.    1489.23  E(vib)   ...       0.00
freq.    1497.29  E(vib)   ...       0.00
freq.    1501.63  E(vib)   ...       0.00
freq.    1503.99  E(vib)   ...       0.00
freq.    1510.38  E(vib)   ...       0.00
freq.    1512.21  E(vib)   ...       0.00
freq.    1513.23  E(vib)   ...       0.00
freq.    1517.56  E(vib)   ...       0.00
freq.    1526.70  E(vib)   ...       0.00
freq.    1528.72  E(vib)   ...       0.00
freq.    1536.78  E(vib)   ...       0.00
freq.    1554.32  E(vib)   ...       0.00
freq.    1700.15  E(vib)   ...       0.00
freq.    1710.19  E(vib)   ...       0.00
freq.    3024.12  E(vib)   ...       0.00
freq.    3035.30  E(vib)   ...       0.00
freq.    3035.89  E(vib)   ...       0.00
freq.    3040.10  E(vib)   ...       0.00
freq.    3045.57  E(vib)   ...       0.00
freq.    3054.11  E(vib)   ...       0.00
freq.    3064.41  E(vib)   ...       0.00
freq.    3074.50  E(vib)   ...       0.00
freq.    3084.01  E(vib)   ...       0.00
freq.    3093.08  E(vib)   ...       0.00
freq.    3098.96  E(vib)   ...       0.00
freq.    3101.05  E(vib)   ...       0.00
freq.    3101.45  E(vib)   ...       0.00
freq.    3105.90  E(vib)   ...       0.00
freq.    3129.24  E(vib)   ...       0.00
freq.    3130.64  E(vib)   ...       0.00
freq.    3160.67  E(vib)   ...       0.00
freq.    3170.94  E(vib)   ...       0.00
freq.    3190.48  E(vib)   ...       0.00
freq.    3194.19  E(vib)   ...       0.00

------------
INNER ENERGY
------------

The inner energy is: U= E(el) + E(ZPE) + E(vib) + E(rot) + E(trans)
    E(el)   - is the total energy from the electronic structure calculation
              = E(kin-el) + E(nuc-el) + E(el-el) + E(nuc-nuc)
    E(ZPE)  - the the zero temperature vibrational energy from the frequency calculation
    E(vib)  - the the finite temperature correction to E(ZPE) due to population
              of excited vibrational states
    E(rot)  - is the rotational thermal energy
    E(trans)- is the translational thermal energy

Summary of contributions to the inner energy U:
Electronic energy                ...   -652.74171770 Eh
Zero point energy                ...      0.30153822 Eh     189.22 kcal/mol
Thermal vibrational correction   ...      0.01425026 Eh       8.94 kcal/mol
Thermal rotational correction    ...      0.00141627 Eh       0.89 kcal/mol
Thermal translational correction ...      0.00141627 Eh       0.89 kcal/mol
-----------------------------------------------------------------------
Total thermal energy                   -652.42309668 Eh

Summary of corrections to the electronic energy:
(perhaps to be used in another calculation)
Total thermal correction                  0.01708280 Eh      10.72 kcal/mol
Non-thermal (ZPE) correction              0.30153822 Eh     189.22 kcal/mol
-----------------------------------------------------------------------
Total correction                          0.31862102 Eh     199.94 kcal/mol

--------
ENTHALPY
--------

The enthalpy is H = U + kB*T
                kB is Boltzmann's constant
Total free energy                 ...   -652.42309668 Eh
Thermal Enthalpy correction       ...      0.00094421 Eh       0.59 kcal/mol
-----------------------------------------------------------------------
Total Enthalpy                    ...   -652.42215247 Eh

Note: Only C1 symmetry has been detected, increase convergence thresholds
      if your molecule has a higher symmetry. Symmetry factor of 1.0 is
      used for the rotational entropy correction.

Rotational constants in cm-1:     0.021059     0.019595     0.012942

                             ****ORCA TERMINATED NORMALLY****
TOTAL RUN TIME: 0 days 0 hours 26 minutes 53 seconds 953 msec
