                         Program Version 5.0.4 -  RELEASE  -
|  1> ! OPT FREQ B3LYP 6-31+G(d) D4 AUTOAUX CPCM(water)
|  2>
|  3> %PAL NPROCS 4 END
|  4>
|  5> %maxcore 3375
|  6>
|  7> *xyzfile 1 1 /users/fjb15167/WWenergy/structures/Nke.xyz
|  8>
|  9>                          ****END OF INPUT****
 Total Charge           Charge          ....    1
 Multiplicity           Mult            ....    1
 Number of Electrons    NEL             ....  102
Dispersion correction           -0.048804175
FINAL SINGLE POINT ENERGY      -629.974550786959
Dispersion correction            ... Starting D4
Dispersion correction           -0.047129216
FINAL SINGLE POINT ENERGY      -629.976173407252
Dispersion correction            ... Starting D4
Dispersion correction           -0.047730149
FINAL SINGLE POINT ENERGY      -629.983252629354
Dispersion correction            ... Starting D4
FINAL SINGLE POINT ENERGY      -629.984801057838
FINAL SINGLE POINT ENERGY      -629.985362350824
FINAL SINGLE POINT ENERGY      -629.985483509335
FINAL SINGLE POINT ENERGY      -629.985796821768
FINAL SINGLE POINT ENERGY      -629.985929278930
FINAL SINGLE POINT ENERGY      -629.986132206826
FINAL SINGLE POINT ENERGY      -629.986279376614
FINAL SINGLE POINT ENERGY      -629.986339340409
FINAL SINGLE POINT ENERGY      -629.986398686116
FINAL SINGLE POINT ENERGY      -629.986433941503
FINAL SINGLE POINT ENERGY      -629.986469271412
FINAL SINGLE POINT ENERGY      -629.986496283260
FINAL SINGLE POINT ENERGY      -629.986525502350
FINAL SINGLE POINT ENERGY      -629.986547528975
Dispersion correction           -0.047712501
FINAL SINGLE POINT ENERGY      -629.986561545185
Dispersion correction            ... Starting D4
Dispersion correction           -0.047711776
FINAL SINGLE POINT ENERGY      -629.986564673354
Dispersion correction            ... Starting D4
                    ***********************HURRAY********************

CARTESIAN COORDINATES (ANGSTROEM)
---------------------------------
  C      0.686921    3.241149   -1.255109
  H      1.628565    2.768657   -1.556435
  H      0.918050    4.001056   -0.499787
  H      0.243614    3.730072   -2.124442
  C     -0.309268    2.226263   -0.731979
  O     -1.415196    2.075160   -1.275498
  N      0.021281    1.473280    0.361709
  C     -0.997339    0.561978    0.861694
  H     -0.715737    0.239470    1.869586
  H     -1.946551    1.096623    0.938343
  C      1.283258    1.576844    1.094787
  H      1.877058    2.384761    0.669021
  H      1.080523    1.835633    2.141330
  C      2.097630    0.281946    1.087404
  H      3.073985    0.456529    1.544442
  H      1.596085   -0.525328    1.626059
  C     -1.160145   -0.675113   -0.034892
  N     -2.273500   -1.407456    0.134666
  O     -0.275889   -0.979244   -0.867562
  C     -2.542230   -2.566439   -0.717602
  H     -2.603124   -3.472500   -0.103951
  H     -3.498055   -2.424622   -1.235387
  H     -1.743366   -2.673299   -1.449625
  C     -3.318407   -1.069921    1.107173
  H     -2.889019   -0.682886    2.032736
  H     -4.022382   -0.336520    0.694247
  H     -3.865946   -1.984382    1.347140
  N      2.307715   -0.209272   -0.311886
  H      2.754146    0.495059   -0.907675
  H      2.904403   -1.042307   -0.327495
  H      1.373919   -0.466191   -0.718011

 Multiplicity           Mult            ....    1
 Number of Electrons    NEL             ....  102
 Basis Dimension        Dim             ....  270

ORBITAL ENERGIES
----------------

  NO   OCC          E(Eh)            E(eV)
   0   2.0000     -19.138571      -520.7870
   1   2.0000     -19.131029      -520.5818
   2   2.0000     -14.428470      -392.6186
   3   2.0000     -14.381529      -391.3413
   4   2.0000     -14.380474      -391.3126
   5   2.0000     -10.304511      -280.4000
   6   2.0000     -10.300973      -280.3037
   7   2.0000     -10.245007      -278.7808
   8   2.0000     -10.236949      -278.5615
   9   2.0000     -10.232933      -278.4523
  10   2.0000     -10.213788      -277.9313
  11   2.0000     -10.207546      -277.7615
  12   2.0000     -10.183135      -277.0972
  13   2.0000      -1.058380       -28.8000
  14   2.0000      -1.045458       -28.4483
  15   2.0000      -0.991182       -26.9714
  16   2.0000      -0.949526       -25.8379
  17   2.0000      -0.948658       -25.8143
  18   2.0000      -0.784615       -21.3504
  19   2.0000      -0.769534       -20.9401
  20   2.0000      -0.734393       -19.9838
  21   2.0000      -0.721483       -19.6325
  22   2.0000      -0.689227       -18.7548
  23   2.0000      -0.662814       -18.0361
  24   2.0000      -0.588737       -16.0204
  25   2.0000      -0.574020       -15.6199
  26   2.0000      -0.563842       -15.3429
  27   2.0000      -0.544335       -14.8121
  28   2.0000      -0.522261       -14.2114
  29   2.0000      -0.511496       -13.9185
  30   2.0000      -0.505554       -13.7568
  31   2.0000      -0.483576       -13.1588
  32   2.0000      -0.481790       -13.1102
  33   2.0000      -0.463873       -12.6226
  34   2.0000      -0.459049       -12.4914
  35   2.0000      -0.435210       -11.8427
  36   2.0000      -0.428690       -11.6652
  37   2.0000      -0.422331       -11.4922
  38   2.0000      -0.413266       -11.2455
  39   2.0000      -0.409834       -11.1521
  40   2.0000      -0.408147       -11.1062
  41   2.0000      -0.405274       -11.0281
  42   2.0000      -0.401439       -10.9237
  43   2.0000      -0.386830       -10.5262
  44   2.0000      -0.380756       -10.3609
  45   2.0000      -0.376317       -10.2401
  46   2.0000      -0.358478        -9.7547
  47   2.0000      -0.286611        -7.7991
  48   2.0000      -0.272123        -7.4048
  49   2.0000      -0.264469        -7.1966
  50   2.0000      -0.259419        -7.0591
  51   0.0000      -0.006434        -0.1751
  52   0.0000       0.001979         0.0538
  53   0.0000       0.007052         0.1919
  54   0.0000       0.013013         0.3541
  55   0.0000       0.019219         0.5230

MULLIKEN ATOMIC CHARGES
-----------------------
   0 C :   -1.007907
   1 H :    0.261296
   2 H :    0.262444
   3 H :    0.246628
   4 C :    0.879888
   5 O :   -0.601362
   6 N :   -0.080143
   7 C :   -1.019638
   8 H :    0.289126
   9 H :    0.276003
  10 C :   -0.465531
  11 H :    0.257243
  12 H :    0.261074
  13 C :   -0.025956
  14 H :    0.267295
  15 H :    0.273980
  16 C :    0.733253
  17 N :   -0.072209
  18 O :   -0.634967
  19 C :   -0.605425
  20 H :    0.237427
  21 H :    0.237123
  22 H :    0.248894
  23 C :   -0.508771
  24 H :    0.240572
  25 H :    0.245689
  26 H :    0.236745
  27 N :   -1.076997
  28 H :    0.529029
  29 H :    0.532653
  30 H :    0.582545
Sum of atomic charges:    1.0000000

LOEWDIN ATOMIC CHARGES
----------------------
   0 C :   -0.467006
   1 H :    0.226689
   2 H :    0.225633
   3 H :    0.219525
   4 C :    0.121978
   5 O :   -0.443467
   6 N :   -0.307287
   7 C :   -0.223116
   8 H :    0.257749
   9 H :    0.255872
  10 C :   -0.242469
  11 H :    0.242294
  12 H :    0.236188
  13 C :   -0.241675
  14 H :    0.232507
  15 H :    0.238324
  16 C :    0.123205
  17 N :   -0.306153
  18 O :   -0.477441
  19 C :   -0.346701
  20 H :    0.211895
  21 H :    0.213811
  22 H :    0.232084
  23 C :   -0.356303
  24 H :    0.220763
  25 H :    0.217443
  26 H :    0.219418
  27 N :   -0.404182
  28 H :    0.367393
  29 H :    0.364293
  30 H :    0.388735

  Mayer bond orders larger than 0.100000
B(  0-C ,  1-H ) :   0.9491 B(  0-C ,  2-H ) :   0.9471 B(  0-C ,  3-H ) :   0.9988
B(  0-C ,  4-C ) :   0.4006 B(  4-C ,  5-O ) :   1.7062 B(  4-C ,  6-N ) :   1.1503
B(  5-O ,  7-C ) :  -0.1247 B(  6-N ,  7-C ) :   0.8095 B(  6-N , 10-C ) :   0.7748
B(  7-C ,  8-H ) :   0.9303 B(  7-C ,  9-H ) :   1.0608 B(  7-C , 10-C ) :   0.1816
B(  7-C , 13-C ) :  -0.1143 B(  7-C , 16-C ) :   0.5505 B(  7-C , 17-N ) :  -0.2429
B(  7-C , 18-O ) :  -0.1412 B(  9-H , 16-C ) :  -0.1137 B( 10-C , 11-H ) :   0.9607
B( 10-C , 12-H ) :   0.9520 B( 10-C , 13-C ) :   0.6741 B( 13-C , 14-H ) :   0.9356
B( 13-C , 15-H ) :   0.9576 B( 13-C , 27-N ) :   0.5566 B( 16-C , 17-N ) :   1.4401
B( 16-C , 18-O ) :   1.7167 B( 17-N , 19-C ) :   0.8223 B( 17-N , 23-C ) :   0.7950
B( 18-O , 30-H ) :   0.1636 B( 19-C , 20-H ) :   0.9291 B( 19-C , 21-H ) :   0.9349
B( 19-C , 22-H ) :   0.9486 B( 23-C , 24-H ) :   0.9242 B( 23-C , 25-H ) :   0.9249
B( 23-C , 26-H ) :   0.9319 B( 27-N , 28-H ) :   0.6795 B( 27-N , 29-H ) :   0.6804
B( 27-N , 30-H ) :   0.4861

Dispersion correction           -0.047709034
FINAL SINGLE POINT ENERGY      -629.986566666444

DIPOLE MOMENT
-------------
                                X             Y             Z
Electronic contribution:      0.64336       1.34280      -2.27076
Nuclear contribution   :      3.69188      -2.36389       4.63530
                        -----------------------------------------
Total Dipole Moment    :      4.33524      -1.02108       2.36454
                        -----------------------------------------
Magnitude (a.u.)       :      5.04261
Magnitude (Debye)      :     12.81729

Dispersion correction in the Hessian             ... Starting D4

VIBRATIONAL FREQUENCIES
-----------------------

Scaling factor for frequencies =  1.000000000  (already applied!)

   0:         0.00 cm**-1
   1:         0.00 cm**-1
   2:         0.00 cm**-1
   3:         0.00 cm**-1
   4:         0.00 cm**-1
   5:         0.00 cm**-1
   6:        33.67 cm**-1
   7:        56.67 cm**-1
   8:        82.60 cm**-1
   9:        85.85 cm**-1
  10:       100.57 cm**-1
  11:       119.87 cm**-1
  12:       144.93 cm**-1
  13:       161.62 cm**-1
  14:       184.04 cm**-1
  15:       198.12 cm**-1
  16:       232.42 cm**-1
  17:       247.54 cm**-1
  18:       289.14 cm**-1
  19:       318.51 cm**-1
  20:       344.85 cm**-1
  21:       384.31 cm**-1
  22:       410.80 cm**-1
  23:       417.05 cm**-1
  24:       451.57 cm**-1
  25:       490.93 cm**-1
  26:       534.98 cm**-1
  27:       569.01 cm**-1
  28:       606.43 cm**-1
  29:       613.31 cm**-1
  30:       638.22 cm**-1
  31:       761.15 cm**-1
  32:       824.00 cm**-1
  33:       855.06 cm**-1
  34:       896.92 cm**-1
  35:       953.85 cm**-1
  36:       970.57 cm**-1
  37:       988.47 cm**-1
  38:      1017.20 cm**-1
  39:      1051.13 cm**-1
  40:      1065.14 cm**-1
  41:      1082.40 cm**-1
  42:      1092.37 cm**-1
  43:      1125.34 cm**-1
  44:      1142.92 cm**-1
  45:      1170.93 cm**-1
  46:      1183.12 cm**-1
  47:      1187.79 cm**-1
  48:      1236.85 cm**-1
  49:      1278.38 cm**-1
  50:      1309.96 cm**-1
  51:      1349.81 cm**-1
  52:      1363.45 cm**-1
  53:      1383.81 cm**-1
  54:      1412.15 cm**-1
  55:      1413.57 cm**-1
  56:      1430.11 cm**-1
  57:      1443.66 cm**-1
  58:      1454.73 cm**-1
  59:      1465.59 cm**-1
  60:      1478.49 cm**-1
  61:      1482.10 cm**-1
  62:      1494.62 cm**-1
  63:      1498.54 cm**-1
  64:      1499.78 cm**-1
  65:      1504.48 cm**-1
  66:      1510.99 cm**-1
  67:      1513.10 cm**-1
  68:      1516.36 cm**-1
  69:      1543.47 cm**-1
  70:      1558.69 cm**-1
  71:      1651.21 cm**-1
  72:      1666.44 cm**-1
  73:      1696.07 cm**-1
  74:      1697.80 cm**-1
  75:      3024.44 cm**-1
  76:      3050.56 cm**-1
  77:      3055.73 cm**-1
  78:      3064.46 cm**-1
  79:      3072.32 cm**-1
  80:      3091.97 cm**-1
  81:      3109.06 cm**-1
  82:      3117.62 cm**-1
  83:      3127.17 cm**-1
  84:      3132.64 cm**-1
  85:      3142.86 cm**-1
  86:      3164.84 cm**-1
  87:      3166.73 cm**-1
  88:      3167.35 cm**-1
  89:      3182.60 cm**-1
  90:      3193.01 cm**-1
  91:      3462.70 cm**-1
  92:      3520.83 cm**-1

IR SPECTRUM
-----------

 Mode   freq       eps      Int      T**2         TX        TY        TZ
       cm**-1   L/(mol*cm) km/mol    a.u.
----------------------------------------------------------------------------
  6:     33.67   0.002337   11.81  0.021665  ( 0.018033  0.119695 -0.083745)
  7:     56.67   0.000306    1.54  0.001682  (-0.027337  0.010036 -0.028886)
  8:     82.60   0.002483   12.55  0.009381  (-0.030169  0.076010 -0.051894)
  9:     85.85   0.001120    5.66  0.004072  (-0.040593  0.030580  0.038595)
 10:    100.57   0.002860   14.45  0.008875  (-0.030260  0.076624  0.045691)
 11:    119.87   0.000755    3.81  0.001965  (-0.007697 -0.000726 -0.043646)
 12:    144.93   0.001356    6.85  0.002921  (-0.017244 -0.017329  0.048198)
 13:    161.62   0.000572    2.89  0.001104  ( 0.018921  0.026359  0.007168)
 14:    184.04   0.002487   12.57  0.004216  ( 0.052550  0.031519  0.021478)
 15:    198.12   0.008192   41.40  0.012904  (-0.108293 -0.031330 -0.013954)
 16:    232.42   0.010310   52.10  0.013843  ( 0.110463 -0.032797  0.023781)
 17:    247.54   0.001277    6.45  0.001610  ( 0.039233  0.003837 -0.007467)
 18:    289.14   0.002203   11.13  0.002378  ( 0.016710  0.045776 -0.001844)
 19:    318.51   0.003142   15.88  0.003078  (-0.026115  0.043158 -0.023099)
 20:    344.85   0.001462    7.39  0.001323  ( 0.004749  0.000632 -0.036060)
 21:    384.31   0.003065   15.49  0.002488  ( 0.043701  0.001062  0.024032)
 22:    410.80   0.009446   47.73  0.007175  ( 0.059993  0.058789 -0.010953)
 23:    417.05   0.000845    4.27  0.000632  ( 0.022767  0.004598  0.009628)
 24:    451.57   0.000925    4.68  0.000640  (-0.015389  0.018406  0.007998)
 25:    490.93   0.001049    5.30  0.000667  (-0.011763 -0.003116  0.022780)
 26:    534.98   0.005369   27.13  0.003132  ( 0.044625  0.027676 -0.019356)
 27:    569.01   0.004625   23.37  0.002536  ( 0.035847 -0.015096  0.031990)
 28:    606.43   0.000936    4.73  0.000482  ( 0.016341 -0.014640  0.000400)
 29:    613.31   0.003324   16.80  0.001691  ( 0.025024  0.017160 -0.027759)
 30:    638.22   0.005027   25.40  0.002458  (-0.026283 -0.041083 -0.008898)
 31:    761.15   0.000534    2.70  0.000219  (-0.013922 -0.004388  0.002397)
 32:    824.00   0.010023   50.65  0.003796  ( 0.055266 -0.014394 -0.023118)
 33:    855.06   0.004334   21.90  0.001582  ( 0.028934  0.027219 -0.001925)
 34:    896.92   0.006319   31.93  0.002199  (-0.046811 -0.001244 -0.002411)
 35:    953.85   0.003268   16.51  0.001069  ( 0.021462  0.005260  0.024100)
 36:    970.57   0.002152   10.88  0.000692  ( 0.017396  0.019173  0.004666)
 37:    988.47   0.004659   23.55  0.001471  (-0.030460  0.009109 -0.021450)
 38:   1017.20   0.008739   44.16  0.002681  (-0.035566  0.024333 -0.028704)
 39:   1051.13   0.005911   29.87  0.001755  ( 0.005900  0.005677 -0.041083)
 40:   1065.14   0.002521   12.74  0.000739  ( 0.007766 -0.020515 -0.016046)
 41:   1082.40   0.006279   31.73  0.001810  ( 0.032853 -0.009418 -0.025342)
 42:   1092.37   0.008972   45.34  0.002563  ( 0.003061  0.041350 -0.029050)
 43:   1125.34   0.001000    5.05  0.000277  (-0.015822  0.000692  0.005147)
 44:   1142.92   0.019938  100.76  0.005444  ( 0.071143  0.008585  0.017570)
 45:   1170.93   0.003526   17.82  0.000940  ( 0.016327  0.020121 -0.016379)
 46:   1183.12   0.026895  135.92  0.007094  ( 0.042329  0.070350 -0.018792)
 47:   1187.79   0.006461   32.65  0.001698  ( 0.021896 -0.019105  0.029208)
 48:   1236.85   0.007488   37.84  0.001889  (-0.028821  0.013105 -0.029780)
 49:   1278.38   0.012472   63.03  0.003044  (-0.033561 -0.043379 -0.006036)
 50:   1309.96   0.014841   75.00  0.003536  (-0.022385  0.037558 -0.040297)
 51:   1349.81   0.005785   29.24  0.001338  (-0.004130  0.019790 -0.030476)
 52:   1363.45   0.005190   26.23  0.001188  ( 0.024402  0.022751  0.008645)
 53:   1383.81   0.016348   82.62  0.003687  (-0.034750 -0.034601  0.035804)
 54:   1412.15   0.004653   23.52  0.001028  (-0.023750 -0.006923 -0.020404)
 55:   1413.57   0.003495   17.66  0.000772  (-0.025422 -0.006493  0.009115)
 56:   1430.11   0.008948   45.22  0.001953  ( 0.002983 -0.039245  0.020088)
 57:   1443.66   0.011829   59.78  0.002557  ( 0.044364  0.020197 -0.013450)
 58:   1454.73   0.014334   72.44  0.003075  (-0.006088  0.055076  0.002099)
 59:   1465.59   0.031401  158.69  0.006686  ( 0.052743 -0.037494  0.049986)
 60:   1478.49   0.004975   25.14  0.001050  ( 0.016979  0.014332  0.023588)
 61:   1482.10   0.020547  103.84  0.004326  ( 0.030896  0.015356 -0.056000)
 62:   1494.62   0.015322   77.43  0.003199  (-0.010763  0.046416 -0.030477)
 63:   1498.54   0.004881   24.67  0.001016  (-0.023057 -0.013906  0.017073)
 64:   1499.78   0.016417   82.97  0.003416  ( 0.002468  0.022162 -0.054025)
 65:   1504.48   0.000863    4.36  0.000179  (-0.000906 -0.013217  0.001842)
 66:   1510.99   0.000454    2.29  0.000094  (-0.008707  0.001549  0.003939)
 67:   1513.10   0.001870    9.45  0.000386  (-0.012012  0.011988 -0.009884)
 68:   1516.36   0.003401   17.19  0.000700  (-0.023634  0.006484  0.009965)
 69:   1543.47   0.026239  132.60  0.005305  ( 0.021782 -0.054798 -0.042752)
 70:   1558.69   0.091301  461.40  0.018279  (-0.109164 -0.005299  0.079589)
 71:   1651.21   0.120643  609.68  0.022800  (-0.143390 -0.035200  0.031634)
 72:   1666.44   0.116710  589.80  0.021855  ( 0.104923 -0.027558  0.100435)
 73:   1696.07   0.036622  185.07  0.006738  (-0.076253  0.000030  0.030393)
 74:   1697.80   0.015405   77.85  0.002831  (-0.023638 -0.045895 -0.012900)
 75:   3024.44   0.275345  1391.48  0.028410  (-0.160204 -0.041571 -0.031887)
 76:   3050.56   0.008651   43.72  0.000885  (-0.004815  0.025790  0.014022)
 77:   3055.73   0.003134   15.84  0.000320  ( 0.016441  0.006132 -0.003490)
 78:   3064.46   0.000835    4.22  0.000085  ( 0.008483  0.003565 -0.000584)
 79:   3072.32   0.006295   31.81  0.000639  (-0.012100 -0.008527 -0.020500)
 80:   3091.97   0.001795    9.07  0.000181  (-0.007013 -0.007156  0.008989)
 81:   3109.06   0.006721   33.96  0.000675  (-0.011413  0.016456 -0.016539)
 82:   3117.62   0.003043   15.38  0.000305  ( 0.010953  0.008913 -0.010257)
 83:   3127.17   0.001375    6.95  0.000137  (-0.006239  0.007536  0.006438)
 84:   3132.64   0.003494   17.66  0.000348  ( 0.002196 -0.012666  0.013521)
 85:   3142.86   0.000847    4.28  0.000084  ( 0.007878  0.001898 -0.004297)
 86:   3164.84   0.002066   10.44  0.000204  ( 0.005159 -0.006911  0.011373)
 87:   3166.73   0.002694   13.62  0.000266  (-0.008436 -0.009335 -0.010354)
 88:   3167.35   0.000651    3.29  0.000064  ( 0.003340 -0.005660  0.004573)
 89:   3182.60   0.001525    7.71  0.000150  ( 0.010040  0.006913 -0.000990)
 90:   3193.01   0.000688    3.48  0.000067  (-0.002820  0.003519  0.006849)
 91:   3462.70   0.025921  130.99  0.002336  (-0.045230  0.005838  0.016006)
 92:   3520.83   0.026038  131.59  0.002308  (-0.004243  0.045069 -0.016083)

--------------------------
THERMOCHEMISTRY AT 298.15K
--------------------------

Temperature         ... 298.15 K
Pressure            ... 1.00 atm
Total Mass          ... 188.25 AMU

Throughout the following assumptions are being made:
  (1) The electronic state is orbitally nondegenerate
  (2) There are no thermally accessible electronically excited states
  (3) Hindered rotations indicated by low frequency modes are not
      treated as such but are treated as vibrations and this may
      cause some error
  (4) All equations used are the standard statistical mechanics
      equations for an ideal gas
  (5) All vibrations are strictly harmonic

freq.      33.67  E(vib)   ...       0.55
freq.      56.67  E(vib)   ...       0.52
freq.      82.60  E(vib)   ...       0.48
freq.      85.85  E(vib)   ...       0.48
freq.     100.57  E(vib)   ...       0.46
freq.     119.87  E(vib)   ...       0.44
freq.     144.93  E(vib)   ...       0.41
freq.     161.62  E(vib)   ...       0.39
freq.     184.04  E(vib)   ...       0.37
freq.     198.12  E(vib)   ...       0.35
freq.     232.42  E(vib)   ...       0.32
freq.     247.54  E(vib)   ...       0.31
freq.     289.14  E(vib)   ...       0.27
freq.     318.51  E(vib)   ...       0.25
freq.     344.85  E(vib)   ...       0.23
freq.     384.31  E(vib)   ...       0.20
freq.     410.80  E(vib)   ...       0.19
freq.     417.05  E(vib)   ...       0.18
freq.     451.57  E(vib)   ...       0.16
freq.     490.93  E(vib)   ...       0.14
freq.     534.98  E(vib)   ...       0.13
freq.     569.01  E(vib)   ...       0.11
freq.     606.43  E(vib)   ...       0.10
freq.     613.31  E(vib)   ...       0.10
freq.     638.22  E(vib)   ...       0.09
freq.     761.15  E(vib)   ...       0.06
freq.     824.00  E(vib)   ...       0.05
freq.     855.06  E(vib)   ...       0.04
freq.     896.92  E(vib)   ...       0.03
freq.     953.85  E(vib)   ...       0.03
freq.     970.57  E(vib)   ...       0.03
freq.     988.47  E(vib)   ...       0.02
freq.    1017.20  E(vib)   ...       0.02
freq.    1051.13  E(vib)   ...       0.02
freq.    1065.14  E(vib)   ...       0.02
freq.    1082.40  E(vib)   ...       0.02
freq.    1092.37  E(vib)   ...       0.02
freq.    1125.34  E(vib)   ...       0.01
freq.    1142.92  E(vib)   ...       0.01
freq.    1170.93  E(vib)   ...       0.01
freq.    1183.12  E(vib)   ...       0.01
freq.    1187.79  E(vib)   ...       0.01
freq.    1236.85  E(vib)   ...       0.01
freq.    1278.38  E(vib)   ...       0.01
freq.    1309.96  E(vib)   ...       0.01
freq.    1349.81  E(vib)   ...       0.01
freq.    1363.45  E(vib)   ...       0.01
freq.    1383.81  E(vib)   ...       0.00
freq.    1412.15  E(vib)   ...       0.00
freq.    1413.57  E(vib)   ...       0.00
freq.    1430.11  E(vib)   ...       0.00
freq.    1443.66  E(vib)   ...       0.00
freq.    1454.73  E(vib)   ...       0.00
freq.    1465.59  E(vib)   ...       0.00
freq.    1478.49  E(vib)   ...       0.00
freq.    1482.10  E(vib)   ...       0.00
freq.    1494.62  E(vib)   ...       0.00
freq.    1498.54  E(vib)   ...       0.00
freq.    1499.78  E(vib)   ...       0.00
freq.    1504.48  E(vib)   ...       0.00
freq.    1510.99  E(vib)   ...       0.00
freq.    1513.10  E(vib)   ...       0.00
freq.    1516.36  E(vib)   ...       0.00
freq.    1543.47  E(vib)   ...       0.00
freq.    1558.69  E(vib)   ...       0.00
freq.    1651.21  E(vib)   ...       0.00
freq.    1666.44  E(vib)   ...       0.00
freq.    1696.07  E(vib)   ...       0.00
freq.    1697.80  E(vib)   ...       0.00
freq.    3024.44  E(vib)   ...       0.00
freq.    3050.56  E(vib)   ...       0.00
freq.    3055.73  E(vib)   ...       0.00
freq.    3064.46  E(vib)   ...       0.00
freq.    3072.32  E(vib)   ...       0.00
freq.    3091.97  E(vib)   ...       0.00
freq.    3109.06  E(vib)   ...       0.00
freq.    3117.62  E(vib)   ...       0.00
freq.    3127.17  E(vib)   ...       0.00
freq.    3132.64  E(vib)   ...       0.00
freq.    3142.86  E(vib)   ...       0.00
freq.    3164.84  E(vib)   ...       0.00
freq.    3166.73  E(vib)   ...       0.00
freq.    3167.35  E(vib)   ...       0.00
freq.    3182.60  E(vib)   ...       0.00
freq.    3193.01  E(vib)   ...       0.00
freq.    3462.70  E(vib)   ...       0.00
freq.    3520.83  E(vib)   ...       0.00

------------
INNER ENERGY
------------

The inner energy is: U= E(el) + E(ZPE) + E(vib) + E(rot) + E(trans)
    E(el)   - is the total energy from the electronic structure calculation
              = E(kin-el) + E(nuc-el) + E(el-el) + E(nuc-nuc)
    E(ZPE)  - the the zero temperature vibrational energy from the frequency calculation
    E(vib)  - the the finite temperature correction to E(ZPE) due to population
              of excited vibrational states
    E(rot)  - is the rotational thermal energy
    E(trans)- is the translational thermal energy

Summary of contributions to the inner energy U:
Electronic energy                ...   -629.98656667 Eh
Zero point energy                ...      0.27745002 Eh     174.10 kcal/mol
Thermal vibrational correction   ...      0.01232643 Eh       7.73 kcal/mol
Thermal rotational correction    ...      0.00141627 Eh       0.89 kcal/mol
Thermal translational correction ...      0.00141627 Eh       0.89 kcal/mol
-----------------------------------------------------------------------
Total thermal energy                   -629.69395767 Eh

Summary of corrections to the electronic energy:
(perhaps to be used in another calculation)
Total thermal correction                  0.01515897 Eh       9.51 kcal/mol
Non-thermal (ZPE) correction              0.27745002 Eh     174.10 kcal/mol
-----------------------------------------------------------------------
Total correction                          0.29260899 Eh     183.61 kcal/mol

--------
ENTHALPY
--------

The enthalpy is H = U + kB*T
                kB is Boltzmann's constant
Total free energy                 ...   -629.69395767 Eh
Thermal Enthalpy correction       ...      0.00094421 Eh       0.59 kcal/mol
-----------------------------------------------------------------------
Total Enthalpy                    ...   -629.69301346 Eh

Note: Only C1 symmetry has been detected, increase convergence thresholds
      if your molecule has a higher symmetry. Symmetry factor of 1.0 is
      used for the rotational entropy correction.

Note: Rotational entropy computed according to Herzberg
Infrared and Raman Spectra, Chapter V,1, Van Nostrand Reinhold, 1945
Point Group:  C1, Symmetry Number:   1
Rotational constants in cm-1:     0.036724     0.018112     0.015267

Vibrational entropy computed according to the QRRHO of S. Grimme
Chem.Eur.J. 2012 18 9955

                             ****ORCA TERMINATED NORMALLY****
TOTAL RUN TIME: 0 days 0 hours 55 minutes 47 seconds 539 msec
