                         Program Version 5.0.4 -  RELEASE  -
|  1> ! OPT FREQ B3LYP 6-31G(d) D4 AUTOAUX
|  2> ! CPCM
|  3>
|  4> %cpcm
|  5> epsilon 9.8629
|  6> refrac  1.4295
|  7> end
|  8>
|  9> %PAL NPROCS 4 END
| 10>
| 11> %maxcore 3375
| 12>
| 13> *xyzfile 0 1 /users/fjb15167/WWenergy/structures/Nw.xyz
| 14>
| 15>                          ****END OF INPUT****
 Total Charge           Charge          ....    0
 Multiplicity           Mult            ....    1
 Number of Electrons    NEL             ....  146
Dispersion correction           -0.087923714
FINAL SINGLE POINT ENERGY      -897.311799358344
Dispersion correction            ... Starting D4
Dispersion correction           -0.086554132
FINAL SINGLE POINT ENERGY      -897.311835051565
Dispersion correction            ... Starting D4
Dispersion correction           -0.085090109
FINAL SINGLE POINT ENERGY      -897.311931333358
Dispersion correction            ... Starting D4
FINAL SINGLE POINT ENERGY      -897.312641845713
FINAL SINGLE POINT ENERGY      -897.312858408623
FINAL SINGLE POINT ENERGY      -897.312874596791
FINAL SINGLE POINT ENERGY      -897.313043469584
FINAL SINGLE POINT ENERGY      -897.313075216084
FINAL SINGLE POINT ENERGY      -897.313108501697
FINAL SINGLE POINT ENERGY      -897.313129978468
Dispersion correction           -0.086871281
FINAL SINGLE POINT ENERGY      -897.313137411049
Dispersion correction            ... Starting D4
Dispersion correction           -0.086870603
FINAL SINGLE POINT ENERGY      -897.313138730689
Dispersion correction            ... Starting D4
                    ***********************HURRAY********************

CARTESIAN COORDINATES (ANGSTROEM)
---------------------------------
  C      3.286732    0.085795   -0.238426
  H      3.928577    1.005766   -2.101791
  H      2.952884    2.072514   -1.080172
  H      4.626281    1.685912   -0.613933
  O      3.989607   -0.298725    0.705498
  C      3.715857    1.287390   -1.064442
  N      2.107284   -0.536095   -0.552896
  C      1.769960   -1.783570    0.130481
  H      1.698706   -2.588816   -0.607864
  H      2.592180   -2.010747    0.812201
  C      1.312138   -0.222441   -1.756233
  H      1.413564   -1.057972   -2.462562
  H      1.749608    0.655306   -2.231407
  C     -0.137794    0.002669   -1.462999
  C     -1.167588   -0.830328   -1.826356
  H     -1.135167   -1.758207   -2.380686
  N     -2.359953   -0.344885   -1.342758
  H     -3.261645   -0.781431   -1.471797
  C     -2.125481    0.822480   -0.646158
  C     -0.726449    1.077650   -0.706982
  C     -0.219647    2.224516   -0.072744
  H      0.842476    2.449939   -0.105906
  C     -1.097304    3.067833    0.600975
  H     -0.714903    3.956924    1.095647
  C     -3.012777    1.665896    0.029465
  H     -4.077085    1.449150    0.064779
  C     -2.479682    2.789458    0.654709
  H     -3.140553    3.466139    1.189960
  C      0.427451   -1.815253    0.879446
  O     -0.383412   -2.708555    0.603184
  N      0.187926   -0.880062    1.834841
  C      1.160270    0.074015    2.348607
  H      0.933241    1.087478    1.997358
  H      1.109204    0.068705    3.444540
  H      2.175138   -0.187799    2.055493
  C     -1.141707   -0.780908    2.421718
  H     -1.520827    0.240449    2.300502
  H     -1.805184   -1.480333    1.915951
  H     -1.108928   -1.019857    3.492757

 Multiplicity           Mult            ....    1
 Number of Electrons    NEL             ....  146
 Basis Dimension        Dim             ....  318

ORBITAL ENERGIES
----------------

  NO   OCC          E(Eh)            E(eV)
   0   2.0000     -19.108834      -519.9778
   1   2.0000     -19.098025      -519.6837
   2   2.0000     -14.364410      -390.8755
   3   2.0000     -14.359027      -390.7290
   4   2.0000     -14.350717      -390.5029
   5   2.0000     -10.282955      -279.8134
   6   2.0000     -10.273223      -279.5486
   7   2.0000     -10.215085      -277.9666
   8   2.0000     -10.208129      -277.7773
   9   2.0000     -10.207198      -277.7520
  10   2.0000     -10.206704      -277.7385
  11   2.0000     -10.191632      -277.3284
  12   2.0000     -10.190284      -277.2917
  13   2.0000     -10.177412      -276.9415
  14   2.0000     -10.174541      -276.8633
  15   2.0000     -10.174069      -276.8505
  16   2.0000     -10.173739      -276.8415
  17   2.0000     -10.173383      -276.8318
  18   2.0000     -10.170163      -276.7442
  19   2.0000     -10.168681      -276.7039
  20   2.0000      -1.030316       -28.0363
  21   2.0000      -1.018756       -27.7218
  22   2.0000      -0.972334       -26.4585
  23   2.0000      -0.930628       -25.3237
  24   2.0000      -0.919466       -25.0199
  25   2.0000      -0.832666       -22.6580
  26   2.0000      -0.789186       -21.4749
  27   2.0000      -0.755260       -20.5517
  28   2.0000      -0.731804       -19.9134
  29   2.0000      -0.725604       -19.7447
  30   2.0000      -0.712991       -19.4015
  31   2.0000      -0.702663       -19.1204
  32   2.0000      -0.686607       -18.6835
  33   2.0000      -0.665367       -18.1056
  34   2.0000      -0.615554       -16.7501
  35   2.0000      -0.585735       -15.9387
  36   2.0000      -0.566487       -15.4149
  37   2.0000      -0.548259       -14.9189
  38   2.0000      -0.534147       -14.5349
  39   2.0000      -0.528965       -14.3939
  40   2.0000      -0.506324       -13.7778
  41   2.0000      -0.486219       -13.2307
  42   2.0000      -0.476676       -12.9710
  43   2.0000      -0.467817       -12.7300
  44   2.0000      -0.462568       -12.5871
  45   2.0000      -0.458438       -12.4747
  46   2.0000      -0.451891       -12.2966
  47   2.0000      -0.442039       -12.0285
  48   2.0000      -0.429092       -11.6762
  49   2.0000      -0.424176       -11.5424
  50   2.0000      -0.414585       -11.2814
  51   2.0000      -0.413374       -11.2485
  52   2.0000      -0.406357       -11.0575
  53   2.0000      -0.396485       -10.7889
  54   2.0000      -0.394675       -10.7397
  55   2.0000      -0.389413       -10.5965
  56   2.0000      -0.387613       -10.5475
  57   2.0000      -0.384821       -10.4715
  58   2.0000      -0.383329       -10.4309
  59   2.0000      -0.374515       -10.1911
  60   2.0000      -0.369876       -10.0648
  61   2.0000      -0.353089        -9.6080
  62   2.0000      -0.348058        -9.4711
  63   2.0000      -0.343427        -9.3451
  64   2.0000      -0.329055        -8.9540
  65   2.0000      -0.326467        -8.8836
  66   2.0000      -0.270460        -7.3596
  67   2.0000      -0.255115        -6.9420
  68   2.0000      -0.250993        -6.8299
  69   2.0000      -0.234797        -6.3891
  70   2.0000      -0.230728        -6.2784
  71   2.0000      -0.215090        -5.8529
  72   2.0000      -0.199000        -5.4151
  73   0.0000      -0.006447        -0.1754
  74   0.0000       0.022222         0.6047
  75   0.0000       0.026351         0.7171
  76   0.0000       0.032124         0.8741
  77   0.0000       0.071121         1.9353

MULLIKEN ATOMIC CHARGES
-----------------------
   0 C :    0.540963
   1 H :    0.194762
   2 H :    0.201379
   3 H :    0.181476
   4 O :   -0.532149
   5 C :   -0.573002
   6 N :   -0.362077
   7 C :   -0.259589
   8 H :    0.174380
   9 H :    0.204526
  10 C :   -0.248827
  11 H :    0.171833
  12 H :    0.185902
  13 C :    0.032018
  14 C :    0.003054
  15 H :    0.179275
  16 N :   -0.636084
  17 H :    0.368108
  18 C :    0.272813
  19 C :    0.087799
  20 C :   -0.232092
  21 H :    0.152024
  22 C :   -0.167309
  23 H :    0.136955
  24 C :   -0.186278
  25 H :    0.151004
  26 C :   -0.174102
  27 H :    0.140472
  28 C :    0.543257
  29 O :   -0.549489
  30 N :   -0.353004
  31 C :   -0.352492
  32 H :    0.167574
  33 H :    0.162936
  34 H :    0.192306
  35 C :   -0.330055
  36 H :    0.170542
  37 H :    0.179476
  38 H :    0.161717
Sum of atomic charges:   -0.0000000

LOEWDIN ATOMIC CHARGES
----------------------
   0 C :    0.115714
   1 H :    0.155645
   2 H :    0.153088
   3 H :    0.150214
   4 O :   -0.334111
   5 C :   -0.394812
   6 N :   -0.072005
   7 C :   -0.181724
   8 H :    0.143727
   9 H :    0.162957
  10 C :   -0.146549
  11 H :    0.138397
  12 H :    0.149961
  13 C :   -0.105040
  14 C :   -0.083946
  15 H :    0.150872
  16 N :   -0.125503
  17 H :    0.281950
  18 C :    0.010988
  19 C :   -0.041236
  20 C :   -0.146116
  21 H :    0.137621
  22 C :   -0.162783
  23 H :    0.134757
  24 C :   -0.161785
  25 H :    0.142329
  26 C :   -0.152537
  27 H :    0.136393
  28 C :    0.099865
  29 O :   -0.341505
  30 N :   -0.064985
  31 C :   -0.289270
  32 H :    0.131617
  33 H :    0.131390
  34 H :    0.147782
  35 C :   -0.279829
  36 H :    0.134852
  37 H :    0.144982
  38 H :    0.128633

  Mayer bond orders larger than 0.100000
B(  0-C ,  4-O ) :   1.7312 B(  0-C ,  5-C ) :   0.9913 B(  0-C ,  6-N ) :   1.1614
B(  1-H ,  5-C ) :   0.9217 B(  2-H ,  5-C ) :   0.9147 B(  3-H ,  5-C ) :   0.9372
B(  6-N ,  7-C ) :   0.9434 B(  6-N , 10-C ) :   0.9356 B(  7-C ,  8-H ) :   0.9165
B(  7-C ,  9-H ) :   0.8906 B(  7-C , 28-C ) :   0.9401 B( 10-C , 11-H ) :   0.9198
B( 10-C , 12-H ) :   0.9086 B( 10-C , 13-C ) :   0.9895 B( 13-C , 14-C ) :   1.5395
B( 13-C , 19-C ) :   1.2524 B( 14-C , 15-H ) :   0.9195 B( 14-C , 16-N ) :   1.1105
B( 16-N , 17-H ) :   0.8186 B( 16-N , 18-C ) :   1.0152 B( 18-C , 19-C ) :   1.2857
B( 18-C , 24-C ) :   1.3599 B( 19-C , 20-C ) :   1.3575 B( 20-C , 21-H ) :   0.9114
B( 20-C , 22-C ) :   1.4619 B( 22-C , 23-H ) :   0.9302 B( 22-C , 26-C ) :   1.3792
B( 24-C , 25-H ) :   0.9196 B( 24-C , 26-C ) :   1.4671 B( 26-C , 27-H ) :   0.9289
B( 28-C , 29-O ) :   1.7461 B( 28-C , 30-N ) :   1.1967 B( 30-N , 31-C ) :   0.9552
B( 30-N , 35-C ) :   0.9516 B( 31-C , 32-H ) :   0.9164 B( 31-C , 33-H ) :   0.9351
B( 31-C , 34-H ) :   0.9022 B( 35-C , 36-H ) :   0.9292 B( 35-C , 37-H ) :   0.9268
B( 35-C , 38-H ) :   0.9370

Dispersion correction           -0.086881445
FINAL SINGLE POINT ENERGY      -897.313139381415

DIPOLE MOMENT
-------------
                                X             Y             Z
Electronic contribution:     -4.22931      -3.98982      -5.07052
Nuclear contribution   :      3.01296       5.01152       3.89693
                        -----------------------------------------
Total Dipole Moment    :     -1.21636       1.02169      -1.17359
                        -----------------------------------------
Magnitude (a.u.)       :      1.97502
Magnitude (Debye)      :      5.02009

Dispersion correction in the Hessian             ... Starting D4

VIBRATIONAL FREQUENCIES
-----------------------

Scaling factor for frequencies =  1.000000000  (already applied!)

   0:         0.00 cm**-1
   1:         0.00 cm**-1
   2:         0.00 cm**-1
   3:         0.00 cm**-1
   4:         0.00 cm**-1
   5:         0.00 cm**-1
   6:        22.63 cm**-1
   7:        45.51 cm**-1
   8:        63.23 cm**-1
   9:        76.64 cm**-1
  10:        91.84 cm**-1
  11:       114.57 cm**-1
  12:       114.95 cm**-1
  13:       130.53 cm**-1
  14:       169.08 cm**-1
  15:       171.34 cm**-1
  16:       188.01 cm**-1
  17:       202.87 cm**-1
  18:       215.80 cm**-1
  19:       233.28 cm**-1
  20:       251.76 cm**-1
  21:       288.04 cm**-1
  22:       312.82 cm**-1
  23:       330.45 cm**-1
  24:       368.54 cm**-1
  25:       379.18 cm**-1
  26:       410.63 cm**-1
  27:       430.55 cm**-1
  28:       439.99 cm**-1
  29:       446.93 cm**-1
  30:       462.72 cm**-1
  31:       503.29 cm**-1
  32:       548.36 cm**-1
  33:       575.86 cm**-1
  34:       589.17 cm**-1
  35:       598.09 cm**-1
  36:       602.07 cm**-1
  37:       616.84 cm**-1
  38:       655.52 cm**-1
  39:       688.39 cm**-1
  40:       747.55 cm**-1
  41:       754.62 cm**-1
  42:       757.91 cm**-1
  43:       774.77 cm**-1
  44:       783.96 cm**-1
  45:       814.29 cm**-1
  46:       842.73 cm**-1
  47:       863.53 cm**-1
  48:       890.79 cm**-1
  49:       928.29 cm**-1
  50:       945.70 cm**-1
  51:       969.14 cm**-1
  52:       969.91 cm**-1
  53:      1002.16 cm**-1
  54:      1011.36 cm**-1
  55:      1041.06 cm**-1
  56:      1061.83 cm**-1
  57:      1090.38 cm**-1
  58:      1092.94 cm**-1
  59:      1103.77 cm**-1
  60:      1118.10 cm**-1
  61:      1139.69 cm**-1
  62:      1153.86 cm**-1
  63:      1175.67 cm**-1
  64:      1180.86 cm**-1
  65:      1185.66 cm**-1
  66:      1222.32 cm**-1
  67:      1255.33 cm**-1
  68:      1272.79 cm**-1
  69:      1290.62 cm**-1
  70:      1292.49 cm**-1
  71:      1300.33 cm**-1
  72:      1342.45 cm**-1
  73:      1373.37 cm**-1
  74:      1387.35 cm**-1
  75:      1393.98 cm**-1
  76:      1410.19 cm**-1
  77:      1416.67 cm**-1
  78:      1442.08 cm**-1
  79:      1459.59 cm**-1
  80:      1467.00 cm**-1
  81:      1468.91 cm**-1
  82:      1486.54 cm**-1
  83:      1488.37 cm**-1
  84:      1497.96 cm**-1
  85:      1500.06 cm**-1
  86:      1501.25 cm**-1
  87:      1508.90 cm**-1
  88:      1515.53 cm**-1
  89:      1524.13 cm**-1
  90:      1528.80 cm**-1
  91:      1537.05 cm**-1
  92:      1559.50 cm**-1
  93:      1606.35 cm**-1
  94:      1631.80 cm**-1
  95:      1677.24 cm**-1
  96:      1703.87 cm**-1
  97:      1713.99 cm**-1
  98:      3038.45 cm**-1
  99:      3039.26 cm**-1
 100:      3045.97 cm**-1
 101:      3065.07 cm**-1
 102:      3079.12 cm**-1
 103:      3096.08 cm**-1
 104:      3099.28 cm**-1
 105:      3129.20 cm**-1
 106:      3146.31 cm**-1
 107:      3158.18 cm**-1
 108:      3169.96 cm**-1
 109:      3184.38 cm**-1
 110:      3190.33 cm**-1
 111:      3193.75 cm**-1
 112:      3194.52 cm**-1
 113:      3205.31 cm**-1
 114:      3212.50 cm**-1
 115:      3277.89 cm**-1
 116:      3649.93 cm**-1

IR SPECTRUM
-----------

 Mode   freq       eps      Int      T**2         TX        TY        TZ
       cm**-1   L/(mol*cm) km/mol    a.u.
----------------------------------------------------------------------------
  6:     22.63   0.000298    1.51  0.004116  (-0.054678 -0.018447  0.028030)
  7:     45.51   0.000335    1.69  0.002296  ( 0.000700  0.043855  0.019295)
  8:     63.23   0.000121    0.61  0.000599  ( 0.012864 -0.020821 -0.000597)
  9:     76.64   0.000454    2.29  0.001849  ( 0.028132 -0.029665  0.013311)
 10:     91.84   0.000093    0.47  0.000316  (-0.009939  0.009028 -0.011661)
 11:    114.57   0.001834    9.27  0.004997  ( 0.033444 -0.057409  0.024131)
 12:    114.95   0.000896    4.53  0.002432  ( 0.013767  0.030377 -0.036324)
 13:    130.53   0.002388   12.07  0.005709  ( 0.038557 -0.009065 -0.064348)
 14:    169.08   0.000982    4.96  0.001813  (-0.004676 -0.033231  0.026205)
 15:    171.34   0.000159    0.80  0.000290  ( 0.001838 -0.002617  0.016723)
 16:    188.01   0.000280    1.41  0.000464  (-0.004368 -0.019029 -0.009124)
 17:    202.87   0.000287    1.45  0.000441  ( 0.013188  0.006767 -0.014885)
 18:    215.80   0.000380    1.92  0.000549  (-0.019244  0.010554 -0.008195)
 19:    233.28   0.003324   16.80  0.004447  ( 0.010002 -0.038314  0.053652)
 20:    251.76   0.001012    5.11  0.001254  (-0.010071  0.025907 -0.021942)
 21:    288.04   0.000999    5.05  0.001082  (-0.001086  0.016089 -0.028673)
 22:    312.82   0.001426    7.20  0.001422  ( 0.031383  0.016442 -0.012924)
 23:    330.45   0.001174    5.93  0.001109  (-0.016908  0.025815  0.012510)
 24:    368.54   0.002216   11.20  0.001877  (-0.030041  0.022328 -0.021812)
 25:    379.18   0.003658   18.49  0.003011  ( 0.016154 -0.023706 -0.046776)
 26:    410.63   0.002156   10.89  0.001638  (-0.033298  0.015361 -0.017129)
 27:    430.55   0.021230  107.29  0.015388  ( 0.023393 -0.067549  0.101379)
 28:    439.99   0.001657    8.37  0.001175  ( 0.033455  0.000793  0.007441)
 29:    446.93   0.006183   31.25  0.004318  (-0.010189  0.037237 -0.053171)
 30:    462.72   0.001777    8.98  0.001199  ( 0.031540  0.000842 -0.014254)
 31:    503.29   0.007632   38.57  0.004732  ( 0.015557  0.045255 -0.049420)
 32:    548.36   0.000666    3.37  0.000379  (-0.018232  0.006816 -0.000403)
 33:    575.86   0.005155   26.05  0.002793  ( 0.049479 -0.003817 -0.018183)
 34:    589.17   0.001540    7.78  0.000815  (-0.008245  0.022237 -0.015905)
 35:    598.09   0.004054   20.49  0.002115  ( 0.045438 -0.002467  0.006677)
 36:    602.07   0.001097    5.54  0.000568  ( 0.014105 -0.007985  0.017482)
 37:    616.84   0.002824   14.27  0.001429  ( 0.002642  0.025478  0.027800)
 38:    655.52   0.002367   11.96  0.001127  (-0.001968  0.028164  0.018161)
 39:    688.39   0.001019    5.15  0.000462  (-0.007890 -0.002994 -0.019763)
 40:    747.55   0.001674    8.46  0.000699  ( 0.000804 -0.008942  0.024864)
 41:    754.62   0.005245   26.51  0.002169  (-0.036560  0.028808  0.001552)
 42:    757.91   0.016349   82.62  0.006731  (-0.000198  0.037173 -0.073140)
 43:    774.77   0.001151    5.82  0.000464  ( 0.006734 -0.020453  0.000343)
 44:    783.96   0.000606    3.06  0.000241  (-0.010696  0.004539  0.010308)
 45:    814.29   0.007426   37.53  0.002846  (-0.012210 -0.007857 -0.051331)
 46:    842.73   0.002575   13.01  0.000953  (-0.016086  0.020747  0.016254)
 47:    863.53   0.000341    1.72  0.000123  (-0.003774  0.001458  0.010338)
 48:    890.79   0.000491    2.48  0.000172  (-0.010936  0.005401  0.004821)
 49:    928.29   0.000575    2.91  0.000193  ( 0.001041  0.006775 -0.012095)
 50:    945.70   0.003697   18.69  0.001220  (-0.029413  0.000965 -0.018816)
 51:    969.14   0.000033    0.17  0.000011  (-0.002859 -0.000565  0.001514)
 52:    969.91   0.004442   22.45  0.001429  (-0.031187 -0.021192  0.002715)
 53:   1002.16   0.010089   50.99  0.003142  ( 0.048866 -0.022733 -0.015394)
 54:   1011.36   0.007575   38.28  0.002337  (-0.036376 -0.013105 -0.029021)
 55:   1041.06   0.002784   14.07  0.000834  (-0.009813  0.021632  0.016438)
 56:   1061.83   0.001508    7.62  0.000443  ( 0.013729 -0.010270 -0.012212)
 57:   1090.38   0.005533   27.96  0.001584  (-0.028085 -0.025226 -0.012587)
 58:   1092.94   0.001456    7.36  0.000416  (-0.018383 -0.008091 -0.003531)
 59:   1103.77   0.002123   10.73  0.000600  (-0.003510  0.020288  0.013276)
 60:   1118.10   0.011508   58.16  0.003212  (-0.041653 -0.032782 -0.020058)
 61:   1139.69   0.000216    1.09  0.000059  ( 0.000430 -0.006922  0.003312)
 62:   1153.86   0.000921    4.65  0.000249  ( 0.002815  0.004626  0.014824)
 63:   1175.67   0.009280   46.90  0.002463  ( 0.003957  0.022735  0.043938)
 64:   1180.86   0.003659   18.49  0.000967  (-0.001593 -0.016564 -0.026270)
 65:   1185.66   0.000028    0.14  0.000007  (-0.002181 -0.001607  0.000373)
 66:   1222.32   0.007907   39.96  0.002019  (-0.024994  0.036392  0.008347)
 67:   1255.33   0.006627   33.49  0.001647  ( 0.038489  0.009760  0.008413)
 68:   1272.79   0.002067   10.45  0.000507  ( 0.004145  0.018651  0.011909)
 69:   1290.62   0.019247   97.27  0.004654  (-0.062009 -0.002273  0.028345)
 70:   1292.49   0.037860  191.33  0.009141  (-0.077779 -0.055560 -0.002141)
 71:   1300.33   0.007552   38.16  0.001812  (-0.009663 -0.036390  0.019867)
 72:   1342.45   0.001023    5.17  0.000238  (-0.001772 -0.014520 -0.004885)
 73:   1373.37   0.002364   11.95  0.000537  ( 0.019033  0.010069  0.008571)
 74:   1387.35   0.010167   51.38  0.002287  ( 0.033625 -0.026281 -0.021577)
 75:   1393.98   0.009616   48.60  0.002153  ( 0.033908  0.027512  0.015690)
 76:   1410.19   0.005102   25.78  0.001129  ( 0.011952 -0.027893  0.014429)
 77:   1416.67   0.007015   35.45  0.001545  (-0.035314  0.015742 -0.007098)
 78:   1442.08   0.011068   55.93  0.002395  ( 0.014131 -0.027354 -0.038042)
 79:   1459.59   0.021445  108.37  0.004585  (-0.055784  0.013192  0.036042)
 80:   1467.00   0.012297   62.14  0.002616  (-0.017430  0.039356  0.027625)
 81:   1468.91   0.048677  245.99  0.010341  (-0.095449 -0.032998 -0.011912)
 82:   1486.54   0.003743   18.92  0.000786  ( 0.011041  0.023511 -0.010539)
 83:   1488.37   0.003874   19.58  0.000812  (-0.003877 -0.000472 -0.028233)
 84:   1497.96   0.007342   37.11  0.001530  ( 0.024040  0.027315  0.014338)
 85:   1500.06   0.003658   18.49  0.000761  ( 0.008525 -0.022164 -0.014041)
 86:   1501.25   0.006122   30.94  0.001273  ( 0.007899  0.034722  0.002133)
 87:   1508.90   0.003210   16.22  0.000664  ( 0.001562 -0.024540  0.007701)
 88:   1515.53   0.000659    3.33  0.000136  ( 0.008652  0.002846  0.007260)
 89:   1524.13   0.000991    5.01  0.000203  ( 0.006791  0.004378 -0.011729)
 90:   1528.80   0.005356   27.07  0.001093  (-0.009797  0.012477 -0.029011)
 91:   1537.05   0.000821    4.15  0.000167  ( 0.000774  0.012712  0.002116)
 92:   1559.50   0.014150   71.51  0.002831  (-0.029897  0.018248  0.040057)
 93:   1606.35   0.007666   38.74  0.001489  ( 0.037269 -0.003637  0.009330)
 94:   1631.80   0.000739    3.73  0.000141  (-0.003926 -0.005199 -0.009940)
 95:   1677.24   0.005186   26.21  0.000965  ( 0.020892  0.012505  0.019291)
 96:   1703.87   0.096488  487.61  0.017672  (-0.097804  0.011771 -0.089261)
 97:   1713.99   0.106256  536.98  0.019346  (-0.052896 -0.112010 -0.063259)
 98:   3038.45   0.014457   73.06  0.001485  ( 0.006554 -0.018148 -0.033355)
 99:   3039.26   0.005913   29.88  0.000607  (-0.019870 -0.006661  0.012959)
100:   3045.97   0.020992  106.09  0.002151  ( 0.000918 -0.020679 -0.041499)
101:   3065.07   0.000803    4.06  0.000082  (-0.000013 -0.005982  0.006783)
102:   3079.12   0.007145   36.11  0.000724  (-0.005489 -0.025184 -0.007728)
103:   3096.08   0.012413   62.73  0.001251  (-0.005807  0.025278 -0.024051)
104:   3099.28   0.000771    3.90  0.000078  ( 0.005769 -0.005848  0.003194)
105:   3129.20   0.001646    8.32  0.000164  ( 0.005905 -0.009162 -0.006729)
106:   3146.31   0.001908    9.64  0.000189  (-0.010235 -0.000195  0.009190)
107:   3158.18   0.003990   20.16  0.000394  ( 0.013590  0.012652 -0.007034)
108:   3169.96   0.002611   13.20  0.000257  (-0.013424 -0.000964 -0.008714)
109:   3184.38   0.000195    0.99  0.000019  ( 0.002808  0.003229  0.000909)
110:   3190.33   0.000968    4.89  0.000095  (-0.008775 -0.004153 -0.000685)
111:   3193.75   0.000718    3.63  0.000070  (-0.000123 -0.005475  0.006340)
112:   3194.52   0.003273   16.54  0.000320  (-0.001914 -0.014743 -0.009935)
113:   3205.31   0.009937   50.22  0.000967  (-0.030672  0.001701  0.004881)
114:   3212.50   0.005222   26.39  0.000507  (-0.005602 -0.019664 -0.009444)
115:   3277.89   0.000072    0.36  0.000007  (-0.001819  0.001002  0.001592)
116:   3649.93   0.033107  167.31  0.002831  ( 0.044147  0.026962  0.012439)

--------------------------
THERMOCHEMISTRY AT 298.15K
--------------------------

Temperature         ... 298.15 K
Pressure            ... 1.00 atm
Total Mass          ... 273.34 AMU

Throughout the following assumptions are being made:
  (1) The electronic state is orbitally nondegenerate
  (2) There are no thermally accessible electronically excited states
  (3) Hindered rotations indicated by low frequency modes are not
      treated as such but are treated as vibrations and this may
      cause some error
  (4) All equations used are the standard statistical mechanics
      equations for an ideal gas
  (5) All vibrations are strictly harmonic

freq.      22.63  E(vib)   ...       0.56
freq.      45.51  E(vib)   ...       0.53
freq.      63.23  E(vib)   ...       0.51
freq.      76.64  E(vib)   ...       0.49
freq.      91.84  E(vib)   ...       0.47
freq.     114.57  E(vib)   ...       0.44
freq.     114.95  E(vib)   ...       0.44
freq.     130.53  E(vib)   ...       0.43
freq.     169.08  E(vib)   ...       0.38
freq.     171.34  E(vib)   ...       0.38
freq.     188.01  E(vib)   ...       0.36
freq.     202.87  E(vib)   ...       0.35
freq.     215.80  E(vib)   ...       0.34
freq.     233.28  E(vib)   ...       0.32
freq.     251.76  E(vib)   ...       0.30
freq.     288.04  E(vib)   ...       0.27
freq.     312.82  E(vib)   ...       0.25
freq.     330.45  E(vib)   ...       0.24
freq.     368.54  E(vib)   ...       0.21
freq.     379.18  E(vib)   ...       0.21
freq.     410.63  E(vib)   ...       0.19
freq.     430.55  E(vib)   ...       0.18
freq.     439.99  E(vib)   ...       0.17
freq.     446.93  E(vib)   ...       0.17
freq.     462.72  E(vib)   ...       0.16
freq.     503.29  E(vib)   ...       0.14
freq.     548.36  E(vib)   ...       0.12
freq.     575.86  E(vib)   ...       0.11
freq.     589.17  E(vib)   ...       0.10
freq.     598.09  E(vib)   ...       0.10
freq.     602.07  E(vib)   ...       0.10
freq.     616.84  E(vib)   ...       0.09
freq.     655.52  E(vib)   ...       0.08
freq.     688.39  E(vib)   ...       0.07
freq.     747.55  E(vib)   ...       0.06
freq.     754.62  E(vib)   ...       0.06
freq.     757.91  E(vib)   ...       0.06
freq.     774.77  E(vib)   ...       0.05
freq.     783.96  E(vib)   ...       0.05
freq.     814.29  E(vib)   ...       0.05
freq.     842.73  E(vib)   ...       0.04
freq.     863.53  E(vib)   ...       0.04
freq.     890.79  E(vib)   ...       0.04
freq.     928.29  E(vib)   ...       0.03
freq.     945.70  E(vib)   ...       0.03
freq.     969.14  E(vib)   ...       0.03
freq.     969.91  E(vib)   ...       0.03
freq.    1002.16  E(vib)   ...       0.02
freq.    1011.36  E(vib)   ...       0.02
freq.    1041.06  E(vib)   ...       0.02
freq.    1061.83  E(vib)   ...       0.02
freq.    1090.38  E(vib)   ...       0.02
freq.    1092.94  E(vib)   ...       0.02
freq.    1103.77  E(vib)   ...       0.02
freq.    1118.10  E(vib)   ...       0.01
freq.    1139.69  E(vib)   ...       0.01
freq.    1153.86  E(vib)   ...       0.01
freq.    1175.67  E(vib)   ...       0.01
freq.    1180.86  E(vib)   ...       0.01
freq.    1185.66  E(vib)   ...       0.01
freq.    1222.32  E(vib)   ...       0.01
freq.    1255.33  E(vib)   ...       0.01
freq.    1272.79  E(vib)   ...       0.01
freq.    1290.62  E(vib)   ...       0.01
freq.    1292.49  E(vib)   ...       0.01
freq.    1300.33  E(vib)   ...       0.01
freq.    1342.45  E(vib)   ...       0.01
freq.    1373.37  E(vib)   ...       0.01
freq.    1387.35  E(vib)   ...       0.00
freq.    1393.98  E(vib)   ...       0.00
freq.    1410.19  E(vib)   ...       0.00
freq.    1416.67  E(vib)   ...       0.00
freq.    1442.08  E(vib)   ...       0.00
freq.    1459.59  E(vib)   ...       0.00
freq.    1467.00  E(vib)   ...       0.00
freq.    1468.91  E(vib)   ...       0.00
freq.    1486.54  E(vib)   ...       0.00
freq.    1488.37  E(vib)   ...       0.00
freq.    1497.96  E(vib)   ...       0.00
freq.    1500.06  E(vib)   ...       0.00
freq.    1501.25  E(vib)   ...       0.00
freq.    1508.90  E(vib)   ...       0.00
freq.    1515.53  E(vib)   ...       0.00
freq.    1524.13  E(vib)   ...       0.00
freq.    1528.80  E(vib)   ...       0.00
freq.    1537.05  E(vib)   ...       0.00
freq.    1559.50  E(vib)   ...       0.00
freq.    1606.35  E(vib)   ...       0.00
freq.    1631.80  E(vib)   ...       0.00
freq.    1677.24  E(vib)   ...       0.00
freq.    1703.87  E(vib)   ...       0.00
freq.    1713.99  E(vib)   ...       0.00
freq.    3038.45  E(vib)   ...       0.00
freq.    3039.26  E(vib)   ...       0.00
freq.    3045.97  E(vib)   ...       0.00
freq.    3065.07  E(vib)   ...       0.00
freq.    3079.12  E(vib)   ...       0.00
freq.    3096.08  E(vib)   ...       0.00
freq.    3099.28  E(vib)   ...       0.00
freq.    3129.20  E(vib)   ...       0.00
freq.    3146.31  E(vib)   ...       0.00
freq.    3158.18  E(vib)   ...       0.00
freq.    3169.96  E(vib)   ...       0.00
freq.    3184.38  E(vib)   ...       0.00
freq.    3190.33  E(vib)   ...       0.00
freq.    3193.75  E(vib)   ...       0.00
freq.    3194.52  E(vib)   ...       0.00
freq.    3205.31  E(vib)   ...       0.00
freq.    3212.50  E(vib)   ...       0.00
freq.    3277.89  E(vib)   ...       0.00
freq.    3649.93  E(vib)   ...       0.00

------------
INNER ENERGY
------------

The inner energy is: U= E(el) + E(ZPE) + E(vib) + E(rot) + E(trans)
    E(el)   - is the total energy from the electronic structure calculation
              = E(kin-el) + E(nuc-el) + E(el-el) + E(nuc-nuc)
    E(ZPE)  - the the zero temperature vibrational energy from the frequency calculation
    E(vib)  - the the finite temperature correction to E(ZPE) due to population
              of excited vibrational states
    E(rot)  - is the rotational thermal energy
    E(trans)- is the translational thermal energy

Summary of contributions to the inner energy U:
Electronic energy                ...   -897.31313938 Eh
Zero point energy                ...      0.32735520 Eh     205.42 kcal/mol
Thermal vibrational correction   ...      0.01621266 Eh      10.17 kcal/mol
Thermal rotational correction    ...      0.00141627 Eh       0.89 kcal/mol
Thermal translational correction ...      0.00141627 Eh       0.89 kcal/mol
-----------------------------------------------------------------------
Total thermal energy                   -896.96673897 Eh

Summary of corrections to the electronic energy:
(perhaps to be used in another calculation)
Total thermal correction                  0.01904520 Eh      11.95 kcal/mol
Non-thermal (ZPE) correction              0.32735520 Eh     205.42 kcal/mol
-----------------------------------------------------------------------
Total correction                          0.34640041 Eh     217.37 kcal/mol

--------

Rotational constants in cm-1:     0.016725     0.010159     0.009309

                             ****ORCA TERMINATED NORMALLY****
TOTAL RUN TIME: 0 days 0 hours 55 minutes 25 seconds 473 msec
