                         Program Version 5.0.4 -  RELEASE  -
|  1> ! OPT FREQ B3LYP 6-311G(d) D4 AUTOAUX
|  2> ! CPCM
|  3>
|  4> %cpcm
|  5> epsilon 9.8629
|  6> refrac  1.4295
|  7> end
|  8>
|  9> %PAL NPROCS 4 END
| 10>
| 11> %maxcore 3375
| 12>
| 13> *xyzfile 0 1 /users/fjb15167/WWenergy/structures/NfeBr.xyz
| 14>
| 15>                          ****END OF INPUT****
 Total Charge           Charge          ....    0
 Multiplicity           Mult            ....    1
 Number of Electrons    NEL             ....  168
Dispersion correction           -0.076163393
FINAL SINGLE POINT ENERGY     -3378.701900667858
Dispersion correction            ... Starting D4
Dispersion correction           -0.075310597
FINAL SINGLE POINT ENERGY     -3378.702835536284
Dispersion correction            ... Starting D4
Dispersion correction           -0.075764306
FINAL SINGLE POINT ENERGY     -3378.703080016228
Dispersion correction            ... Starting D4
FINAL SINGLE POINT ENERGY     -3378.703166804768
FINAL SINGLE POINT ENERGY     -3378.703224197141
FINAL SINGLE POINT ENERGY     -3378.703223921294
FINAL SINGLE POINT ENERGY     -3378.703266164770
FINAL SINGLE POINT ENERGY     -3378.703288454008
FINAL SINGLE POINT ENERGY     -3378.703298098243
FINAL SINGLE POINT ENERGY     -3378.703309807394
Dispersion correction           -0.075568920
FINAL SINGLE POINT ENERGY     -3378.703315683384
Dispersion correction            ... Starting D4
Dispersion correction           -0.075561984
FINAL SINGLE POINT ENERGY     -3378.703319542490
Dispersion correction            ... Starting D4
                    ***********************HURRAY********************

CARTESIAN COORDINATES (ANGSTROEM)
---------------------------------
  C      2.968633    3.137274    0.344438
  H      2.226028    2.889945    1.104688
  H      2.461903    3.704730   -0.441650
  H      3.737092    3.767556    0.787736
  C      3.646666    1.910100   -0.232374
  O      4.875456    1.829523   -0.271967
  N      2.842193    0.913672   -0.708675
  C      3.444330   -0.234501   -1.383784
  H      3.137550   -0.240703   -2.431805
  H      4.524853   -0.118942   -1.341257
  C      1.378265    0.971880   -0.695437
  H      1.045221    1.999770   -0.840827
  H      1.024277    0.405097   -1.558959
  C      0.749283    0.392051    0.587105
  H      1.138585   -0.612637    0.758908
  H      1.045368    0.998650    1.446599
  C     -0.752192    0.340694    0.473683
  C     -1.375574   -0.752088   -0.137749
  C     -1.549145    1.394149    0.929557
  C     -2.759169   -0.803489   -0.286640
  H     -0.771512   -1.577883   -0.502086
  C     -2.935779    1.363191    0.791165
  H     -1.085490    2.252263    1.407221
  C     -3.522704    0.259752    0.183152
  H     -3.230015   -1.658696   -0.756359
  H     -3.542717    2.183729    1.154871
  C      2.982769   -1.579674   -0.810696
  N      3.416641   -1.931861    0.424676
  O      2.227145   -2.287592   -1.481804
  C      4.239107   -1.096991    1.292088
  H      3.629056   -0.637140    2.077661
  H      4.997853   -1.721747    1.769569
  H      4.743322   -0.310040    0.740125
  C      2.900538   -3.146534    1.044414
  H      2.192999   -2.897170    1.843474
  H      2.395206   -3.746713    0.293883
  H      3.725525   -3.717745    1.476842
  Br    -5.436565    0.197120   -0.007786

 Multiplicity           Mult            ....    1
 Number of Electrons    NEL             ....  168
 Basis Dimension        Dim             ....  425

ORBITAL ENERGIES
----------------

  NO   OCC          E(Eh)            E(eV)
   0   2.0000    -482.829682    -13138.4636
   1   2.0000     -62.482735     -1700.2417
   2   2.0000     -56.302979     -1532.0820
   3   2.0000     -56.299244     -1531.9803
   4   2.0000     -56.299114     -1531.9768
   5   2.0000     -19.084944      -519.3277
   6   2.0000     -19.083127      -519.2783
   7   2.0000     -14.346908      -390.3992
   8   2.0000     -14.345136      -390.3510
   9   2.0000     -10.274192      -279.5750
  10   2.0000     -10.270573      -279.4765
  11   2.0000     -10.230786      -278.3938
  12   2.0000     -10.208211      -277.7796
  13   2.0000     -10.206190      -277.7245
  14   2.0000     -10.192849      -277.3615
  15   2.0000     -10.189598      -277.2731
  16   2.0000     -10.187730      -277.2222
  17   2.0000     -10.185510      -277.1618
  18   2.0000     -10.185251      -277.1548
  19   2.0000     -10.180623      -277.0288
  20   2.0000     -10.179850      -277.0078
  21   2.0000     -10.174267      -276.8559
  22   2.0000     -10.167374      -276.6683
  23   2.0000      -8.692436      -236.5332
  24   2.0000      -6.523593      -177.5160
  25   2.0000      -6.511127      -177.1768
  26   2.0000      -6.510826      -177.1686
  27   2.0000      -2.634594       -71.6910
  28   2.0000      -2.631042       -71.5943
  29   2.0000      -2.630832       -71.5886
  30   2.0000      -2.620923       -71.3189
  31   2.0000      -2.620917       -71.3188
  32   2.0000      -1.043504       -28.3952
  33   2.0000      -1.036912       -28.2158
  34   2.0000      -0.943616       -25.6771
  35   2.0000      -0.934987       -25.4423
  36   2.0000      -0.880359       -23.9558
  37   2.0000      -0.819794       -22.3077
  38   2.0000      -0.778081       -21.1727
  39   2.0000      -0.763361       -20.7721
  40   2.0000      -0.760092       -20.6832
  41   2.0000      -0.728501       -19.8235
  42   2.0000      -0.718267       -19.5450
  43   2.0000      -0.710654       -19.3379
  44   2.0000      -0.678412       -18.4605
  45   2.0000      -0.649251       -17.6670
  46   2.0000      -0.623003       -16.9528
  47   2.0000      -0.586962       -15.9721
  48   2.0000      -0.559702       -15.2303
  49   2.0000      -0.545363       -14.8401
  50   2.0000      -0.521386       -14.1876
  51   2.0000      -0.507799       -13.8179
  52   2.0000      -0.495149       -13.4737
  53   2.0000      -0.486203       -13.2302
  54   2.0000      -0.477902       -13.0044
  55   2.0000      -0.472590       -12.8598
  56   2.0000      -0.464372       -12.6362
  57   2.0000      -0.461100       -12.5472
  58   2.0000      -0.454106       -12.3569
  59   2.0000      -0.436710       -11.8835
  60   2.0000      -0.425245       -11.5715
  61   2.0000      -0.422436       -11.4951
  62   2.0000      -0.414826       -11.2880
  63   2.0000      -0.411149       -11.1879
  64   2.0000      -0.403265       -10.9734
  65   2.0000      -0.401968       -10.9381
  66   2.0000      -0.401051       -10.9132
  67   2.0000      -0.398620       -10.8470
  68   2.0000      -0.389786       -10.6066
  69   2.0000      -0.382286       -10.4025
  70   2.0000      -0.379549       -10.3281
  71   2.0000      -0.373713       -10.1693
  72   2.0000      -0.365996        -9.9593
  73   2.0000      -0.357557        -9.7296
  74   2.0000      -0.349653        -9.5145
  75   2.0000      -0.343749        -9.3539
  76   2.0000      -0.314392        -8.5551
  77   2.0000      -0.294848        -8.0232
  78   2.0000      -0.268908        -7.3174
  79   2.0000      -0.266655        -7.2560
  80   2.0000      -0.262436        -7.1413
  81   2.0000      -0.251119        -6.8333
  82   2.0000      -0.246633        -6.7112
  83   2.0000      -0.239066        -6.5053
  84   0.0000      -0.020713        -0.5636
  85   0.0000      -0.019598        -0.5333
  86   0.0000      -0.008502        -0.2313
  87   0.0000       0.007400         0.2014
  88   0.0000       0.018677         0.5082

MULLIKEN ATOMIC CHARGES
-----------------------
   0 C :   -0.764298
   1 H :    0.254868
   2 H :    0.258023
   3 H :    0.240495
   4 C :    0.446040
   5 O :   -0.439400
   6 N :   -0.299784
   7 C :   -0.466486
   8 H :    0.258091
   9 H :    0.275654
  10 C :   -0.341702
  11 H :    0.262612
  12 H :    0.257834
  13 C :   -0.510526
  14 H :    0.271679
  15 H :    0.242946
  16 C :    0.063063
  17 C :   -0.218135
  18 C :   -0.221838
  19 C :   -0.171866
  20 H :    0.220362
  21 C :   -0.171170
  22 H :    0.224555
  23 C :   -0.131535
  24 H :    0.239227
  25 H :    0.238537
  26 C :    0.430550
  27 N :   -0.302522
  28 O :   -0.442203
  29 C :   -0.531286
  30 H :    0.230158
  31 H :    0.235190
  32 H :    0.251669
  33 C :   -0.530431
  34 H :    0.228011
  35 H :    0.237431
  36 H :    0.235749
  37 Br:   -0.059564
Sum of atomic charges:    0.0000000

LOEWDIN ATOMIC CHARGES
----------------------
   0 C :   -0.318239
   1 H :    0.128430
   2 H :    0.137864
   3 H :    0.125023
   4 C :   -0.066516
   5 O :   -0.188669
   6 N :    0.057201
   7 C :   -0.170841
   8 H :    0.119745
   9 H :    0.129061
  10 C :   -0.145248
  11 H :    0.118614
  12 H :    0.116779
  13 C :   -0.191424
  14 H :    0.117286
  15 H :    0.114729
  16 C :   -0.040133
  17 C :   -0.093618
  18 C :   -0.095878
  19 C :   -0.118529
  20 H :    0.119414
  21 C :   -0.119220
  22 H :    0.122262
  23 C :   -0.149017
  24 H :    0.125505
  25 H :    0.125080
  26 C :   -0.085984
  27 N :    0.048091
  28 O :   -0.191508
  29 C :   -0.244755
  30 H :    0.109267
  31 H :    0.115605
  32 H :    0.114143
  33 C :   -0.245966
  34 H :    0.110494
  35 H :    0.116406
  36 H :    0.115233
  37 Br:    0.079315

  Mayer bond orders larger than 0.100000
B(  0-C ,  1-H ) :   0.9028 B(  0-C ,  2-H ) :   0.9058 B(  0-C ,  3-H ) :   0.9317
B(  0-C ,  4-C ) :   0.9427 B(  4-C ,  5-O ) :   1.8443 B(  4-C ,  6-N ) :   1.2069
B(  6-N ,  7-C ) :   0.9527 B(  6-N , 10-C ) :   0.9312 B(  7-C ,  8-H ) :   0.9134
B(  7-C ,  9-H ) :   0.8851 B(  7-C , 26-C ) :   0.9059 B( 10-C , 11-H ) :   0.9106
B( 10-C , 12-H ) :   0.9136 B( 10-C , 13-C ) :   0.9210 B( 13-C , 14-H ) :   0.9143
B( 13-C , 15-H ) :   0.9317 B( 13-C , 16-C ) :   0.9724 B( 16-C , 17-C ) :   1.4072
B( 16-C , 18-C ) :   1.4153 B( 17-C , 19-C ) :   1.4524 B( 17-C , 20-H ) :   0.9192
B( 18-C , 21-C ) :   1.4447 B( 18-C , 22-H ) :   0.9257 B( 19-C , 23-C ) :   1.3895
B( 19-C , 24-H ) :   0.9199 B( 21-C , 23-C ) :   1.3952 B( 21-C , 25-H ) :   0.9198
B( 23-C , 37-Br) :   1.0181 B( 26-C , 27-N ) :   1.2253 B( 26-C , 28-O ) :   1.8490
B( 27-N , 29-C ) :   0.9495 B( 27-N , 33-C ) :   0.9584 B( 29-C , 30-H ) :   0.9131
B( 29-C , 31-H ) :   0.9225 B( 29-C , 32-H ) :   0.8845 B( 33-C , 34-H ) :   0.9187
B( 33-C , 35-H ) :   0.9117 B( 33-C , 36-H ) :   0.9229

Dispersion correction           -0.075557665
FINAL SINGLE POINT ENERGY     -3378.703320325854

DIPOLE MOMENT
-------------
                                X             Y             Z
Electronic contribution:    -83.94974       2.06704      -5.19553
Nuclear contribution   :     84.21254      -1.49111       6.61195
                        -----------------------------------------
Total Dipole Moment    :      0.26280       0.57593       1.41642
                        -----------------------------------------
Magnitude (a.u.)       :      1.55146
Magnitude (Debye)      :      3.94349

Dispersion correction in the Hessian             ... Starting D4

VIBRATIONAL FREQUENCIES
-----------------------

Scaling factor for frequencies =  1.000000000  (already applied!)

   0:         0.00 cm**-1
   1:         0.00 cm**-1
   2:         0.00 cm**-1
   3:         0.00 cm**-1
   4:         0.00 cm**-1
   5:         0.00 cm**-1
   6:        19.13 cm**-1
   7:        30.19 cm**-1
   8:        35.65 cm**-1
   9:        51.80 cm**-1
  10:        66.97 cm**-1
  11:        76.42 cm**-1
  12:        88.08 cm**-1
  13:       104.15 cm**-1
  14:       112.74 cm**-1
  15:       125.25 cm**-1
  16:       149.21 cm**-1
  17:       162.38 cm**-1
  18:       166.68 cm**-1
  19:       215.02 cm**-1
  20:       217.94 cm**-1
  21:       254.78 cm**-1
  22:       277.48 cm**-1
  23:       283.76 cm**-1
  24:       337.37 cm**-1
  25:       357.63 cm**-1
  26:       364.17 cm**-1
  27:       383.21 cm**-1
  28:       392.53 cm**-1
  29:       417.19 cm**-1
  30:       433.01 cm**-1
  31:       460.81 cm**-1
  32:       499.23 cm**-1
  33:       518.16 cm**-1
  34:       579.39 cm**-1
  35:       598.15 cm**-1
  36:       612.80 cm**-1
  37:       645.27 cm**-1
  38:       654.34 cm**-1
  39:       699.98 cm**-1
  40:       727.72 cm**-1
  41:       761.72 cm**-1
  42:       775.85 cm**-1
  43:       813.26 cm**-1
  44:       821.79 cm**-1
  45:       837.48 cm**-1
  46:       865.51 cm**-1
  47:       955.02 cm**-1
  48:       961.96 cm**-1
  49:       972.82 cm**-1
  50:       996.95 cm**-1
  51:      1004.48 cm**-1
  52:      1023.02 cm**-1
  53:      1027.10 cm**-1
  54:      1030.24 cm**-1
  55:      1057.91 cm**-1
  56:      1081.56 cm**-1
  57:      1084.07 cm**-1
  58:      1093.60 cm**-1
  59:      1131.54 cm**-1
  60:      1135.24 cm**-1
  61:      1166.18 cm**-1
  62:      1179.32 cm**-1
  63:      1204.10 cm**-1
  64:      1212.53 cm**-1
  65:      1230.74 cm**-1
  66:      1245.47 cm**-1
  67:      1278.26 cm**-1
  68:      1287.25 cm**-1
  69:      1321.14 cm**-1
  70:      1330.74 cm**-1
  71:      1332.19 cm**-1
  72:      1355.21 cm**-1
  73:      1368.27 cm**-1
  74:      1396.84 cm**-1
  75:      1403.18 cm**-1
  76:      1432.82 cm**-1
  77:      1438.21 cm**-1
  78:      1446.84 cm**-1
  79:      1463.30 cm**-1
  80:      1472.95 cm**-1
  81:      1479.96 cm**-1
  82:      1490.39 cm**-1
  83:      1495.61 cm**-1
  84:      1500.12 cm**-1
  85:      1502.25 cm**-1
  86:      1511.15 cm**-1
  87:      1520.87 cm**-1
  88:      1521.44 cm**-1
  89:      1523.17 cm**-1
  90:      1545.85 cm**-1
  91:      1615.23 cm**-1
  92:      1632.87 cm**-1
  93:      1675.74 cm**-1
  94:      1680.79 cm**-1
  95:      3018.42 cm**-1
  96:      3023.24 cm**-1
  97:      3049.68 cm**-1
  98:      3061.59 cm**-1
  99:      3070.93 cm**-1
 100:      3074.60 cm**-1
 101:      3079.97 cm**-1
 102:      3082.49 cm**-1
 103:      3104.11 cm**-1
 104:      3113.73 cm**-1
 105:      3124.79 cm**-1
 106:      3149.19 cm**-1
 107:      3151.41 cm**-1
 108:      3169.90 cm**-1
 109:      3170.70 cm**-1
 110:      3174.20 cm**-1
 111:      3177.04 cm**-1
 112:      3201.83 cm**-1
 113:      3203.98 cm**-1

IR SPECTRUM
-----------

 Mode   freq       eps      Int      T**2         TX        TY        TZ
       cm**-1   L/(mol*cm) km/mol    a.u.
----------------------------------------------------------------------------
  6:     19.13   0.000110    0.55  0.001789  ( 0.031366  0.027470  0.007121)
  7:     30.19   0.000046    0.23  0.000478  (-0.004096 -0.021018 -0.004465)
  8:     35.65   0.000325    1.64  0.002842  ( 0.048862 -0.001428  0.021280)
  9:     51.80   0.000766    3.87  0.004614  ( 0.051428  0.004599 -0.044141)
 10:     66.97   0.001162    5.87  0.005416  ( 0.033493 -0.049292 -0.043180)
 11:     76.42   0.001069    5.40  0.004365  ( 0.038541 -0.048764 -0.022392)
 12:     88.08   0.000067    0.34  0.000239  (-0.013863 -0.000062 -0.006850)
 13:    104.15   0.001587    8.02  0.004757  (-0.002822  0.037936 -0.057528)
 14:    112.74   0.001415    7.15  0.003917  ( 0.002082  0.050603 -0.036775)
 15:    125.25   0.000475    2.40  0.001184  (-0.011096  0.031376 -0.008728)
 16:    149.21   0.000594    3.00  0.001243  (-0.007883  0.032201 -0.012013)
 17:    162.38   0.000277    1.40  0.000532  (-0.006084  0.020360  0.008943)
 18:    166.68   0.000021    0.10  0.000039  ( 0.003486 -0.004624 -0.002291)
 19:    215.02   0.000215    1.09  0.000312  (-0.014872  0.005973  0.007418)
 20:    217.94   0.000018    0.09  0.000026  (-0.002288  0.003778  0.002466)
 21:    254.78   0.001396    7.05  0.001710  (-0.025454  0.029103  0.014653)
 22:    277.48   0.002652   13.40  0.002982  ( 0.042509 -0.033979  0.004522)
 23:    283.76   0.000072    0.37  0.000080  (-0.003208  0.008095  0.001941)
 24:    337.37   0.000659    3.33  0.000610  (-0.000221  0.007277 -0.023594)
 25:    357.63   0.000596    3.01  0.000520  ( 0.016258  0.015989  0.000569)
 26:    364.17   0.002270   11.47  0.001945  ( 0.026703 -0.009156  0.033889)
 27:    383.21   0.001623    8.20  0.001322  (-0.025749 -0.025481  0.003060)
 28:    392.53   0.002860   14.45  0.002274  (-0.023489 -0.026141  0.032227)
 29:    417.19   0.000022    0.11  0.000016  (-0.003653 -0.001060  0.001345)
 30:    433.01   0.000192    0.97  0.000138  (-0.003442  0.010541 -0.003883)
 31:    460.81   0.002951   14.91  0.001998  (-0.041902 -0.014077  0.006655)
 32:    499.23   0.004065   20.54  0.002541  ( 0.026310 -0.041646 -0.010694)
 33:    518.16   0.008528   43.10  0.005136  (-0.003673 -0.018177  0.069227)
 34:    579.39   0.004090   20.67  0.002203  (-0.009662 -0.040646  0.021386)
 35:    598.15   0.000760    3.84  0.000397  ( 0.009130  0.017509 -0.002612)
 36:    612.80   0.003652   18.45  0.001860  (-0.021412 -0.012880  0.035145)
 37:    645.27   0.000045    0.23  0.000022  (-0.001974 -0.002932 -0.003058)
 38:    654.34   0.005263   26.60  0.002510  (-0.041453 -0.009655 -0.026432)
 39:    699.98   0.000361    1.82  0.000161  ( 0.008701 -0.002012  0.009006)
 40:    727.72   0.001352    6.83  0.000580  ( 0.010292  0.012596 -0.017751)
 41:    761.72   0.004123   20.84  0.001689  ( 0.001084 -0.030202  0.027853)
 42:    775.85   0.002329   11.77  0.000937  ( 0.017542 -0.022756 -0.010538)
 43:    813.26   0.007911   39.98  0.003036  ( 0.046288 -0.006535  0.029162)
 44:    821.79   0.006586   33.28  0.002501  ( 0.000361  0.024650 -0.043511)
 45:    837.48   0.000106    0.53  0.000039  ( 0.000243 -0.000573  0.006242)
 46:    865.51   0.005023   25.38  0.001811  ( 0.008297  0.017127 -0.038064)
 47:    955.02   0.000569    2.88  0.000186  (-0.009514  0.003229 -0.009217)
 48:    961.96   0.000257    1.30  0.000083  ( 0.007070 -0.003140  0.004854)
 49:    972.82   0.000004    0.02  0.000001  ( 0.000943 -0.000348  0.000633)
 50:    996.95   0.005287   26.72  0.001655  (-0.021064  0.010231 -0.033265)
 51:   1004.48   0.009100   45.99  0.002827  ( 0.038810  0.029782 -0.020830)
 52:   1023.02   0.014571   73.63  0.004445  (-0.066632 -0.001028 -0.001951)
 53:   1027.10   0.009899   50.03  0.003008  ( 0.029876  0.042658  0.017188)
 54:   1030.24   0.004710   23.80  0.001427  ( 0.016248  0.006154 -0.033536)
 55:   1057.91   0.002092   10.57  0.000617  (-0.002078  0.011370 -0.021989)
 56:   1081.56   0.005710   28.86  0.001648  ( 0.040363  0.001733  0.003912)
 57:   1084.07   0.003427   17.32  0.000986  ( 0.021995  0.021459  0.006499)
 58:   1093.60   0.002483   12.55  0.000709  ( 0.011229 -0.005471  0.023508)
 59:   1131.54   0.000441    2.23  0.000122  ( 0.001208  0.010635  0.002681)
 60:   1135.24   0.002433   12.30  0.000669  (-0.009944 -0.009591 -0.021862)
 61:   1166.18   0.014735   74.47  0.003943  (-0.039509  0.025014 -0.041909)
 62:   1179.32   0.000493    2.49  0.000130  ( 0.006492 -0.000904  0.009350)
 63:   1204.10   0.000073    0.37  0.000019  (-0.003981  0.000764 -0.001611)
 64:   1212.53   0.010395   52.53  0.002675  (-0.000785 -0.021892 -0.046855)
 65:   1230.74   0.005252   26.54  0.001332  ( 0.029654  0.020172  0.006747)
 66:   1245.47   0.013388   67.66  0.003355  ( 0.036364  0.044144  0.009139)
 67:   1278.26   0.008944   45.20  0.002184  (-0.009269 -0.022554  0.039862)
 68:   1287.25   0.034611  174.91  0.008391  (-0.021694 -0.085068 -0.026141)
 69:   1321.14   0.000620    3.13  0.000146  ( 0.010024  0.006716 -0.000877)
 70:   1330.74   0.000387    1.96  0.000091  (-0.007367 -0.006028 -0.000390)
 71:   1332.19   0.001799    9.09  0.000421  ( 0.013406  0.015477 -0.001457)
 72:   1355.21   0.001210    6.12  0.000279  (-0.012254 -0.011338 -0.000165)
 73:   1368.27   0.000606    3.06  0.000138  ( 0.006327 -0.002118  0.009678)
 74:   1396.84   0.009106   46.02  0.002034  (-0.040892  0.010823  0.015652)
 75:   1403.18   0.010565   53.39  0.002350  (-0.037964 -0.028751 -0.009045)
 76:   1432.82   0.019276   97.41  0.004198  (-0.015029  0.030842 -0.054964)
 77:   1438.21   0.001973    9.97  0.000428  (-0.002516 -0.018300 -0.009324)
 78:   1446.84   0.012991   65.65  0.002802  ( 0.005297  0.048282 -0.021045)
 79:   1463.30   0.047630  240.70  0.010158  (-0.067326 -0.070519 -0.025533)
 80:   1472.95   0.004335   21.91  0.000919  ( 0.027059 -0.013530 -0.001804)
 81:   1479.96   0.001028    5.19  0.000217  ( 0.013282  0.005117 -0.003760)
 82:   1490.39   0.002750   13.90  0.000576  ( 0.009564  0.005966  0.021185)
 83:   1495.61   0.004378   22.13  0.000914  ( 0.005534 -0.021932 -0.020046)
 84:   1500.12   0.001883    9.52  0.000392  ( 0.009619  0.017138 -0.002333)
 85:   1502.25   0.002693   13.61  0.000559  (-0.000006  0.023330 -0.003885)
 86:   1511.15   0.003394   17.15  0.000701  ( 0.023099 -0.012451 -0.003494)
 87:   1520.87   0.006913   34.93  0.001418  (-0.037087  0.006014 -0.002605)
 88:   1521.44   0.021366  107.97  0.004382  ( 0.066178 -0.000807  0.001452)
 89:   1523.17   0.007884   39.84  0.001615  ( 0.003658  0.013411  0.037710)
 90:   1545.85   0.018264   92.30  0.003687  (-0.004739 -0.038196  0.046963)
 91:   1615.23   0.000158    0.80  0.000030  (-0.000767 -0.005037 -0.002119)
 92:   1632.87   0.000535    2.70  0.000102  ( 0.009948 -0.000261  0.001799)
 93:   1675.74   0.215193  1087.50  0.040074  ( 0.159715  0.052203  0.108814)
 94:   1680.79   0.049925  252.30  0.009269  (-0.075104  0.006917  0.059841)
 95:   3018.42   0.005639   28.49  0.000583  (-0.014478 -0.019255  0.001607)
 96:   3023.24   0.020576  103.98  0.002124  (-0.003419 -0.001280  0.045940)
 97:   3049.68   0.000959    4.84  0.000098  (-0.007014  0.006972 -0.000541)
 98:   3061.59   0.002466   12.46  0.000251  ( 0.008478  0.006493  0.011718)
 99:   3070.93   0.003833   19.37  0.000389  (-0.008166  0.009492  0.015255)
100:   3074.60   0.016214   81.94  0.001646  ( 0.021933 -0.001468  0.034095)
101:   3079.97   0.016859   85.20  0.001708  ( 0.033570 -0.024040  0.001808)
102:   3082.49   0.003927   19.85  0.000398  ( 0.015382 -0.012673  0.000626)
103:   3104.11   0.000293    1.48  0.000029  ( 0.001851 -0.005096  0.000286)
104:   3113.73   0.002865   14.48  0.000287  ( 0.001377  0.003783 -0.016459)
105:   3124.79   0.008903   44.99  0.000889  (-0.001668  0.028963  0.006892)
106:   3149.19   0.001974    9.98  0.000196  (-0.001863  0.012602 -0.005774)
107:   3151.41   0.003774   19.07  0.000374  (-0.017359 -0.007872 -0.003222)
108:   3169.90   0.003342   16.89  0.000329  (-0.006513 -0.014843 -0.008144)
109:   3170.70   0.001999   10.10  0.000197  ( 0.013049 -0.005109 -0.000579)
110:   3174.20   0.001270    6.42  0.000125  (-0.003965 -0.008966 -0.005362)
111:   3177.04   0.000556    2.81  0.000055  (-0.006877  0.001924  0.001893)
112:   3201.83   0.001648    8.33  0.000161  (-0.001745  0.011125  0.005817)
113:   3203.98   0.000432    2.18  0.000042  ( 0.001570  0.005785  0.002476)

--------------------------
THERMOCHEMISTRY AT 298.15K
--------------------------

Temperature         ... 298.15 K
Pressure            ... 1.00 atm
Total Mass          ... 327.22 AMU

Throughout the following assumptions are being made:
  (1) The electronic state is orbitally nondegenerate
  (2) There are no thermally accessible electronically excited states
  (3) Hindered rotations indicated by low frequency modes are not
      treated as such but are treated as vibrations and this may
      cause some error
  (4) All equations used are the standard statistical mechanics
      equations for an ideal gas
  (5) All vibrations are strictly harmonic

freq.      19.13  E(vib)   ...       0.57
freq.      30.19  E(vib)   ...       0.55
freq.      35.65  E(vib)   ...       0.54
freq.      51.80  E(vib)   ...       0.52
freq.      66.97  E(vib)   ...       0.50
freq.      76.42  E(vib)   ...       0.49
freq.      88.08  E(vib)   ...       0.48
freq.     104.15  E(vib)   ...       0.46
freq.     112.74  E(vib)   ...       0.45
freq.     125.25  E(vib)   ...       0.43
freq.     149.21  E(vib)   ...       0.40
freq.     162.38  E(vib)   ...       0.39
freq.     166.68  E(vib)   ...       0.39
freq.     215.02  E(vib)   ...       0.34
freq.     217.94  E(vib)   ...       0.33
freq.     254.78  E(vib)   ...       0.30
freq.     277.48  E(vib)   ...       0.28
freq.     283.76  E(vib)   ...       0.28
freq.     337.37  E(vib)   ...       0.24
freq.     357.63  E(vib)   ...       0.22
freq.     364.17  E(vib)   ...       0.22
freq.     383.21  E(vib)   ...       0.20
freq.     392.53  E(vib)   ...       0.20
freq.     417.19  E(vib)   ...       0.18
freq.     433.01  E(vib)   ...       0.17
freq.     460.81  E(vib)   ...       0.16
freq.     499.23  E(vib)   ...       0.14
freq.     518.16  E(vib)   ...       0.13
freq.     579.39  E(vib)   ...       0.11
freq.     598.15  E(vib)   ...       0.10
freq.     612.80  E(vib)   ...       0.10
freq.     645.27  E(vib)   ...       0.09
freq.     654.34  E(vib)   ...       0.08
freq.     699.98  E(vib)   ...       0.07
freq.     727.72  E(vib)   ...       0.06
freq.     761.72  E(vib)   ...       0.06
freq.     775.85  E(vib)   ...       0.05
freq.     813.26  E(vib)   ...       0.05
freq.     821.79  E(vib)   ...       0.05
freq.     837.48  E(vib)   ...       0.04
freq.     865.51  E(vib)   ...       0.04
freq.     955.02  E(vib)   ...       0.03
freq.     961.96  E(vib)   ...       0.03
freq.     972.82  E(vib)   ...       0.03
freq.     996.95  E(vib)   ...       0.02
freq.    1004.48  E(vib)   ...       0.02
freq.    1023.02  E(vib)   ...       0.02
freq.    1027.10  E(vib)   ...       0.02
freq.    1030.24  E(vib)   ...       0.02
freq.    1057.91  E(vib)   ...       0.02
freq.    1081.56  E(vib)   ...       0.02
freq.    1084.07  E(vib)   ...       0.02
freq.    1093.60  E(vib)   ...       0.02
freq.    1131.54  E(vib)   ...       0.01
freq.    1135.24  E(vib)   ...       0.01
freq.    1166.18  E(vib)   ...       0.01
freq.    1179.32  E(vib)   ...       0.01
freq.    1204.10  E(vib)   ...       0.01
freq.    1212.53  E(vib)   ...       0.01
freq.    1230.74  E(vib)   ...       0.01
freq.    1245.47  E(vib)   ...       0.01
freq.    1278.26  E(vib)   ...       0.01
freq.    1287.25  E(vib)   ...       0.01
freq.    1321.14  E(vib)   ...       0.01
freq.    1330.74  E(vib)   ...       0.01
freq.    1332.19  E(vib)   ...       0.01
freq.    1355.21  E(vib)   ...       0.01
freq.    1368.27  E(vib)   ...       0.01
freq.    1396.84  E(vib)   ...       0.00
freq.    1403.18  E(vib)   ...       0.00
freq.    1432.82  E(vib)   ...       0.00
freq.    1438.21  E(vib)   ...       0.00
freq.    1446.84  E(vib)   ...       0.00
freq.    1463.30  E(vib)   ...       0.00
freq.    1472.95  E(vib)   ...       0.00
freq.    1479.96  E(vib)   ...       0.00
freq.    1490.39  E(vib)   ...       0.00
freq.    1495.61  E(vib)   ...       0.00
freq.    1500.12  E(vib)   ...       0.00
freq.    1502.25  E(vib)   ...       0.00
freq.    1511.15  E(vib)   ...       0.00
freq.    1520.87  E(vib)   ...       0.00
freq.    1521.44  E(vib)   ...       0.00
freq.    1523.17  E(vib)   ...       0.00
freq.    1545.85  E(vib)   ...       0.00
freq.    1615.23  E(vib)   ...       0.00
freq.    1632.87  E(vib)   ...       0.00
freq.    1675.74  E(vib)   ...       0.00
freq.    1680.79  E(vib)   ...       0.00
freq.    3018.42  E(vib)   ...       0.00
freq.    3023.24  E(vib)   ...       0.00
freq.    3049.68  E(vib)   ...       0.00
freq.    3061.59  E(vib)   ...       0.00
freq.    3070.93  E(vib)   ...       0.00
freq.    3074.60  E(vib)   ...       0.00
freq.    3079.97  E(vib)   ...       0.00
freq.    3082.49  E(vib)   ...       0.00
freq.    3104.11  E(vib)   ...       0.00
freq.    3113.73  E(vib)   ...       0.00
freq.    3124.79  E(vib)   ...       0.00
freq.    3149.19  E(vib)   ...       0.00
freq.    3151.41  E(vib)   ...       0.00
freq.    3169.90  E(vib)   ...       0.00
freq.    3170.70  E(vib)   ...       0.00
freq.    3174.20  E(vib)   ...       0.00
freq.    3177.04  E(vib)   ...       0.00
freq.    3201.83  E(vib)   ...       0.00
freq.    3203.98  E(vib)   ...       0.00

------------
INNER ENERGY
------------

The inner energy is: U= E(el) + E(ZPE) + E(vib) + E(rot) + E(trans)
    E(el)   - is the total energy from the electronic structure calculation
              = E(kin-el) + E(nuc-el) + E(el-el) + E(nuc-nuc)
    E(ZPE)  - the the zero temperature vibrational energy from the frequency calculation
    E(vib)  - the the finite temperature correction to E(ZPE) due to population
              of excited vibrational states
    E(rot)  - is the rotational thermal energy
    E(trans)- is the translational thermal energy

Summary of contributions to the inner energy U:
Electronic energy                ...  -3378.70332033 Eh
Zero point energy                ...      0.31441563 Eh     197.30 kcal/mol
Thermal vibrational correction   ...      0.01738725 Eh      10.91 kcal/mol
Thermal rotational correction    ...      0.00141627 Eh       0.89 kcal/mol
Thermal translational correction ...      0.00141627 Eh       0.89 kcal/mol
-----------------------------------------------------------------------
Total thermal energy                  -3378.36868490 Eh

Summary of corrections to the electronic energy:
(perhaps to be used in another calculation)
Total thermal correction                  0.02021979 Eh      12.69 kcal/mol
Non-thermal (ZPE) correction              0.31441563 Eh     197.30 kcal/mol
-----------------------------------------------------------------------
Total correction                          0.33463542 Eh     209.99 kcal/mol

--------
ENTHALPY
--------

Rotational constants in cm-1:     0.019343     0.003592     0.003233

                             ****ORCA TERMINATED NORMALLY****
TOTAL RUN TIME: 0 days 1 hours 8 minutes 52 seconds 285 msec
