                         Program Version 5.0.4 -  RELEASE  -
|  1> ! OPT FREQ B3LYP 6-31+G(d) D4 AUTOAUX
|  2>
|  3> %PAL NPROCS 4 END
|  4>
|  5> %maxcore 3375
|  6>
|  7> *xyzfile -1 1 /users/fjb15167/WWenergy/structures/Nd.xyz
|  8>
|  9>                          ****END OF INPUT****
 Total Charge           Charge          ....   -1
 Multiplicity           Mult            ....    1
 Number of Electrons    NEL             ....  108
Dispersion correction           -0.046392996
FINAL SINGLE POINT ENERGY      -722.841554004969
Dispersion correction            ... Starting D4
Dispersion correction           -0.046139715
FINAL SINGLE POINT ENERGY      -722.842719469789
Dispersion correction            ... Starting D4
Dispersion correction           -0.046072723
FINAL SINGLE POINT ENERGY      -722.842053761572
Dispersion correction            ... Starting D4
FINAL SINGLE POINT ENERGY      -722.842929281856
FINAL SINGLE POINT ENERGY      -722.843038431871
FINAL SINGLE POINT ENERGY      -722.843128460626
FINAL SINGLE POINT ENERGY      -722.843173728714
FINAL SINGLE POINT ENERGY      -722.843231969995
FINAL SINGLE POINT ENERGY      -722.843261622876
FINAL SINGLE POINT ENERGY      -722.843268203772
FINAL SINGLE POINT ENERGY      -722.843273663206
FINAL SINGLE POINT ENERGY      -722.843281511918
Dispersion correction           -0.045959560
FINAL SINGLE POINT ENERGY      -722.843292007483
Dispersion correction            ... Starting D4
Dispersion correction           -0.045955990
FINAL SINGLE POINT ENERGY      -722.843300947298
Dispersion correction            ... Starting D4
                    ***********************HURRAY********************

CARTESIAN COORDINATES (ANGSTROEM)
---------------------------------
  C      1.717233    2.947681    0.107607
  H      1.566072    3.233934    1.155985
  H      1.875521    3.849758   -0.487400
  H      2.609737    2.313362    0.060086
  C      0.498506    2.230768   -0.455252
  O     -0.153117    2.739945   -1.382516
  N      0.175298    1.033647    0.101532
  C     -0.825991    0.224401   -0.553530
  H     -1.105619    0.727718   -1.485104
  H     -0.347388   -0.729164   -0.808553
  C      0.990293    0.346263    1.107223
  H      1.509791    1.077443    1.726331
  C     -2.076378    0.016541    0.300428
  N     -2.993404   -0.893768   -0.193020
  O     -2.273471    0.616836    1.355205
  C     -4.125333   -1.272286    0.634515
  H     -5.047862   -1.270301    0.037756
  H     -3.988634   -2.280944    1.057134
  H     -4.214656   -0.555660    1.451705
  C     -2.744959   -1.737143   -1.352283
  H     -3.703916   -1.969581   -1.832488
  H     -2.117995   -1.228418   -2.084695
  H     -2.257600   -2.685817   -1.076330
  C      2.033171   -0.687300    0.543314
  O      1.905608   -1.018817   -0.665165
  H      0.307002   -0.184550    1.780369
  O      2.859091   -1.079550    1.404145

 Multiplicity           Mult            ....    1
 Number of Electrons    NEL             ....  108
 Basis Dimension        Dim             ....  278

ORBITAL ENERGIES
----------------

  NO   OCC          E(Eh)            E(eV)
   0   2.0000     -19.014062      -517.3989
   1   2.0000     -18.987635      -516.6798
   2   2.0000     -18.928919      -515.0821
   3   2.0000     -18.925992      -515.0024
   4   2.0000     -14.269683      -388.2978
   5   2.0000     -14.233606      -387.3161
   6   2.0000     -10.182829      -277.0889
   7   2.0000     -10.159752      -276.4609
   8   2.0000     -10.130320      -275.6600
   9   2.0000     -10.123290      -275.4687
  10   2.0000     -10.108698      -275.0717
  11   2.0000     -10.094890      -274.6959
  12   2.0000     -10.067988      -273.9639
  13   2.0000     -10.065190      -273.8877
  14   2.0000      -0.935948       -25.4685
  15   2.0000      -0.904878       -24.6230
  16   2.0000      -0.858442       -23.3594
  17   2.0000      -0.841385       -22.8952
  18   2.0000      -0.805589       -21.9212
  19   2.0000      -0.773059       -21.0360
  20   2.0000      -0.654377       -17.8065
  21   2.0000      -0.633935       -17.2502
  22   2.0000      -0.613585       -16.6965
  23   2.0000      -0.583364       -15.8741
  24   2.0000      -0.559037       -15.2122
  25   2.0000      -0.461865       -12.5680
  26   2.0000      -0.421866       -11.4796
  27   2.0000      -0.406043       -11.0490
  28   2.0000      -0.390418       -10.6238
  29   2.0000      -0.380205       -10.3459
  30   2.0000      -0.369202       -10.0465
  31   2.0000      -0.356455        -9.6996
  32   2.0000      -0.344272        -9.3681
  33   2.0000      -0.323369        -8.7993
  34   2.0000      -0.317691        -8.6448
  35   2.0000      -0.314422        -8.5558
  36   2.0000      -0.312739        -8.5100
  37   2.0000      -0.307294        -8.3619
  38   2.0000      -0.293004        -7.9730
  39   2.0000      -0.281532        -7.6609
  40   2.0000      -0.277172        -7.5422
  41   2.0000      -0.267340        -7.2747
  42   2.0000      -0.264018        -7.1843
  43   2.0000      -0.245994        -6.6938
  44   2.0000      -0.233487        -6.3535
  45   2.0000      -0.226036        -6.1508
  46   2.0000      -0.200845        -5.4653
  47   2.0000      -0.157069        -4.2741
  48   2.0000      -0.148575        -4.0429
  49   2.0000      -0.131880        -3.5886
  50   2.0000      -0.129040        -3.5114
  51   2.0000      -0.085881        -2.3369
  52   2.0000      -0.071770        -1.9530
  53   2.0000      -0.065759        -1.7894
  54   0.0000       0.079548         2.1646
  55   0.0000       0.102678         2.7940
  56   0.0000       0.112938         3.0732
  57   0.0000       0.114572         3.1177
  58   0.0000       0.121152         3.2967

MULLIKEN ATOMIC CHARGES
-----------------------
   0 C :   -0.971087
   1 H :    0.218080
   2 H :    0.215697
   3 H :    0.250509
   4 C :    0.891736
   5 O :   -0.556667
   6 N :    0.172331
   7 C :   -1.306984
   8 H :    0.260443
   9 H :    0.283668
  10 C :   -0.778840
  11 H :    0.200527
  12 C :    0.875986
  13 N :   -0.166869
  14 O :   -0.508357
  15 C :   -0.556550
  16 H :    0.183210
  17 H :    0.192645
  18 H :    0.248880
  19 C :   -0.506570
  20 H :    0.182358
  21 H :    0.228344
  22 H :    0.214381
  23 C :    0.662483
  24 O :   -0.573512
  25 H :    0.219633
  26 O :   -0.575475
Sum of atomic charges:   -1.0000000

LOEWDIN ATOMIC CHARGES
----------------------
   0 C :   -0.472366
   1 H :    0.205971
   2 H :    0.204276
   3 H :    0.221944
   4 C :    0.107126
   5 O :   -0.444844
   6 N :   -0.273905
   7 C :   -0.242232
   8 H :    0.259716
   9 H :    0.264422
  10 C :   -0.255553
  11 H :    0.223068
  12 C :    0.123268
  13 N :   -0.365153
  14 O :   -0.385753
  15 C :   -0.361856
  16 H :    0.186542
  17 H :    0.191580
  18 H :    0.235300
  19 C :   -0.366399
  20 H :    0.191214
  21 H :    0.216340
  22 H :    0.200110
  23 C :    0.114370
  24 O :   -0.504698
  25 H :    0.230398
  26 O :   -0.502887

  Mayer bond orders larger than 0.100000
B(  0-C ,  1-H ) :   0.9802 B(  0-C ,  2-H ) :   1.0135 B(  0-C ,  3-H ) :   0.9620
B(  0-C ,  4-C ) :   0.3333 B(  0-C ,  6-N ) :  -0.1577 B(  4-C ,  5-O ) :   1.8009
B(  4-C ,  6-N ) :   1.2065 B(  6-N ,  7-C ) :   0.7424 B(  6-N , 10-C ) :   0.6564
B(  7-C ,  8-H ) :   1.1005 B(  7-C ,  9-H ) :   0.9955 B(  7-C , 10-C ) :   0.2041
B(  7-C , 12-C ) :   0.1351 B(  7-C , 13-N ) :  -0.1588 B(  7-C , 14-O ) :  -0.1204
B(  7-C , 24-O ) :  -0.1068 B(  8-H , 12-C ) :  -0.1253 B( 10-C , 11-H ) :   0.9794
B( 10-C , 23-C ) :   0.7192 B( 10-C , 24-O ) :  -0.1322 B( 10-C , 25-H ) :   0.9538
B( 12-C , 13-N ) :   1.2170 B( 12-C , 14-O ) :   1.9493 B( 13-N , 15-C ) :   0.8723
B( 13-N , 19-C ) :   0.8471 B( 15-C , 16-H ) :   0.9485 B( 15-C , 17-H ) :   0.9535
B( 15-C , 18-H ) :   0.9503 B( 19-C , 20-H ) :   0.9479 B( 19-C , 21-H ) :   0.9490
B( 19-C , 22-H ) :   0.9349 B( 23-C , 24-O ) :   1.6199 B( 23-C , 26-O ) :   1.5747

Dispersion correction           -0.045953562
FINAL SINGLE POINT ENERGY      -722.843305542199

DIPOLE MOMENT
-------------
                                X             Y             Z
Electronic contribution:      5.74302       2.65362       0.87666
Nuclear contribution   :     -9.61212      -2.58144      -1.29206
                        -----------------------------------------
Total Dipole Moment    :     -3.86910       0.07218      -0.41540
                        -----------------------------------------
Magnitude (a.u.)       :      3.89201
Magnitude (Debye)      :      9.89270

Dispersion correction in the Hessian             ... Starting D4

VIBRATIONAL FREQUENCIES
-----------------------

Scaling factor for frequencies =  1.000000000  (already applied!)

   0:         0.00 cm**-1
   1:         0.00 cm**-1
   2:         0.00 cm**-1
   3:         0.00 cm**-1
   4:         0.00 cm**-1
   5:         0.00 cm**-1
   6:        19.57 cm**-1
   7:        26.15 cm**-1
   8:        36.78 cm**-1
   9:        46.16 cm**-1
  10:        81.85 cm**-1
  11:        96.71 cm**-1
  12:       101.46 cm**-1
  13:       110.66 cm**-1
  14:       139.95 cm**-1
  15:       199.55 cm**-1
  16:       207.98 cm**-1
  17:       213.71 cm**-1
  18:       255.03 cm**-1
  19:       319.79 cm**-1
  20:       349.70 cm**-1
  21:       388.64 cm**-1
  22:       401.46 cm**-1
  23:       424.72 cm**-1
  24:       443.96 cm**-1
  25:       531.35 cm**-1
  26:       564.22 cm**-1
  27:       572.47 cm**-1
  28:       591.65 cm**-1
  29:       623.55 cm**-1
  30:       640.20 cm**-1
  31:       700.18 cm**-1
  32:       806.98 cm**-1
  33:       840.22 cm**-1
  34:       872.02 cm**-1
  35:       966.41 cm**-1
  36:       977.75 cm**-1
  37:       995.25 cm**-1
  38:      1018.01 cm**-1
  39:      1062.45 cm**-1
  40:      1087.67 cm**-1
  41:      1103.88 cm**-1
  42:      1132.89 cm**-1
  43:      1153.84 cm**-1
  44:      1178.62 cm**-1
  45:      1223.11 cm**-1
  46:      1260.70 cm**-1
  47:      1295.01 cm**-1
  48:      1311.02 cm**-1
  49:      1325.49 cm**-1
  50:      1354.77 cm**-1
  51:      1373.07 cm**-1
  52:      1406.56 cm**-1
  53:      1426.06 cm**-1
  54:      1446.52 cm**-1
  55:      1480.48 cm**-1
  56:      1487.28 cm**-1
  57:      1489.91 cm**-1
  58:      1496.99 cm**-1
  59:      1510.77 cm**-1
  60:      1516.28 cm**-1
  61:      1518.19 cm**-1
  62:      1520.69 cm**-1
  63:      1527.32 cm**-1
  64:      1548.86 cm**-1
  65:      1689.72 cm**-1
  66:      1698.59 cm**-1
  67:      1735.01 cm**-1
  68:      2995.83 cm**-1
  69:      3006.62 cm**-1
  70:      3048.62 cm**-1
  71:      3049.41 cm**-1
  72:      3052.93 cm**-1
  73:      3066.96 cm**-1
  74:      3071.77 cm**-1
  75:      3107.44 cm**-1
  76:      3110.91 cm**-1
  77:      3149.96 cm**-1
  78:      3158.47 cm**-1
  79:      3167.56 cm**-1
  80:      3168.80 cm**-1

IR SPECTRUM
-----------

 Mode   freq       eps      Int      T**2         TX        TY        TZ
       cm**-1   L/(mol*cm) km/mol    a.u.
----------------------------------------------------------------------------
  6:     19.57   0.000179    0.90  0.002853  ( 0.049825 -0.013629  0.013595)
  7:     26.15   0.001304    6.59  0.015561  ( 0.116566  0.043281  0.009997)
  8:     36.78   0.000133    0.67  0.001127  (-0.003068 -0.027282 -0.019319)
  9:     46.16   0.002085   10.54  0.014097  (-0.020888 -0.099821  0.060803)
 10:     81.85   0.001486    7.51  0.005665  (-0.067827 -0.027950  0.016837)
 11:     96.71   0.001301    6.58  0.004199  (-0.064243 -0.003495  0.007735)
 12:    101.46   0.001064    5.38  0.003273  ( 0.006484 -0.028079 -0.049417)
 13:    110.66   0.000385    1.94  0.001085  (-0.017554 -0.016525 -0.022439)
 14:    139.95   0.001280    6.47  0.002853  (-0.048890 -0.015041 -0.015396)
 15:    199.55   0.000372    1.88  0.000582  ( 0.016981 -0.010507  0.013537)
 16:    207.98   0.002060   10.41  0.003092  ( 0.042674 -0.024798  0.025604)
 17:    213.71   0.000253    1.28  0.000370  (-0.004850 -0.014111 -0.012137)
 18:    255.03   0.000110    0.55  0.000134  ( 0.005514  0.010127 -0.001116)
 19:    319.79   0.002276   11.50  0.002221  ( 0.000833  0.044983 -0.014036)
 20:    349.70   0.000918    4.64  0.000820  ( 0.027730  0.005764  0.004166)
 21:    388.64   0.001099    5.55  0.000883  ( 0.027774  0.010074 -0.003117)
 22:    401.46   0.000326    1.65  0.000253  (-0.012997  0.009045 -0.001616)
 23:    424.72   0.000890    4.50  0.000654  (-0.015896 -0.016047  0.011983)
 24:    443.96   0.000482    2.43  0.000339  (-0.016550  0.007651  0.002474)
 25:    531.35   0.005367   27.12  0.003152  (-0.044711 -0.031994 -0.011367)
 26:    564.22   0.001238    6.26  0.000685  ( 0.011320 -0.021284  0.010170)
 27:    572.47   0.001092    5.52  0.000595  (-0.004754 -0.000557 -0.023921)
 28:    591.65   0.000477    2.41  0.000252  (-0.004251 -0.010007 -0.011552)
 29:    623.55   0.001659    8.38  0.000830  (-0.028124  0.004410  0.004441)
 30:    640.20   0.003179   16.07  0.001550  ( 0.017869 -0.033223  0.011260)
 31:    700.18   0.004046   20.45  0.001803  ( 0.025776 -0.019221 -0.027740)
 32:    806.98   0.001647    8.32  0.000637  (-0.020272 -0.001123  0.014992)
 33:    840.22   0.003121   15.77  0.001159  (-0.025665  0.020730  0.008402)
 34:    872.02   0.006091   30.78  0.002180  ( 0.029729 -0.035418  0.006448)
 35:    966.41   0.000094    0.48  0.000030  ( 0.002388  0.003057 -0.003927)
 36:    977.75   0.001524    7.70  0.000487  ( 0.016026 -0.002214  0.014992)
 37:    995.25   0.009889   49.98  0.003101  ( 0.027211  0.046923 -0.012593)
 38:   1018.01   0.005134   25.94  0.001574  ( 0.016533 -0.025376  0.025621)
 39:   1062.45   0.000725    3.67  0.000213  ( 0.013299 -0.002950 -0.005241)
 40:   1087.67   0.001480    7.48  0.000425  (-0.005573  0.012801  0.015156)
 41:   1103.88   0.005425   27.42  0.001534  ( 0.025659  0.029121  0.005224)
 42:   1132.89   0.000437    2.21  0.000120  ( 0.003427 -0.003929 -0.009656)
 43:   1153.84   0.037639  190.21  0.010180  (-0.073450 -0.064135 -0.025913)
 44:   1178.62   0.000677    3.42  0.000179  (-0.005459 -0.008965  0.008310)
 45:   1223.11   0.004019   20.31  0.001025  (-0.024765  0.009128 -0.018133)
 46:   1260.70   0.016510   83.43  0.004087  ( 0.011573  0.060223 -0.018056)
 47:   1295.01   0.007643   38.62  0.001842  ( 0.040807  0.005176 -0.012235)
 48:   1311.02   0.009033   45.65  0.002150  (-0.004574 -0.042691  0.017511)
 49:   1325.49   0.003174   16.04  0.000747  ( 0.025231  0.007109  0.007758)
 50:   1354.77   0.030842  155.86  0.007104  (-0.052864  0.063771  0.015582)
 51:   1373.07   0.021945  110.90  0.004988  ( 0.029064 -0.064236 -0.004068)
 52:   1406.56   0.000380    1.92  0.000084  ( 0.006416  0.004298  0.004965)
 53:   1426.06   0.035112  177.44  0.007684  ( 0.069262  0.043254  0.031866)
 54:   1446.52   0.004150   20.97  0.000895  (-0.029062 -0.005355  0.004684)
 55:   1480.48   0.010036   50.72  0.002115  (-0.006113 -0.029718  0.034566)
 56:   1487.28   0.006424   32.46  0.001348  (-0.022347 -0.019763 -0.021397)
 57:   1489.91   0.005521   27.90  0.001156  ( 0.022151  0.011728 -0.022984)
 58:   1496.99   0.025397  128.34  0.005294  (-0.037321 -0.062141 -0.006312)
 59:   1510.77   0.004691   23.71  0.000969  (-0.028668 -0.006245  0.010398)
 60:   1516.28   0.000545    2.75  0.000112  ( 0.000242 -0.009640 -0.004376)
 61:   1518.19   0.003482   17.60  0.000716  (-0.025791 -0.004201  0.005738)
 62:   1520.69   0.003298   16.67  0.000677  (-0.019695 -0.004882 -0.016281)
 63:   1527.32   0.001694    8.56  0.000346  (-0.004310 -0.017403  0.004972)
 64:   1548.86   0.009142   46.20  0.001842  (-0.033066 -0.025187 -0.010687)
 65:   1689.72   0.019733   99.72  0.003644  ( 0.019813  0.056793  0.005124)
 66:   1698.59   0.180972  914.56  0.033248  (-0.078265  0.064051 -0.151724)
 67:   1735.01   0.059808  302.24  0.010757  ( 0.011630  0.069925  0.075713)
 68:   2995.83   0.014464   73.10  0.001507  ( 0.026645  0.019783 -0.020133)
 69:   3006.62   0.020815  105.19  0.002160  (-0.007506 -0.044851 -0.009616)
 70:   3048.62   0.002894   14.63  0.000296  ( 0.010070  0.010933  0.008681)
 71:   3049.41   0.013349   67.46  0.001366  ( 0.032532 -0.007388  0.015912)
 72:   3052.93   0.012217   61.74  0.001249  ( 0.032758  0.010666  0.007871)
 73:   3066.96   0.010660   53.87  0.001085  (-0.026173 -0.003162 -0.019741)
 74:   3071.77   0.006271   31.69  0.000637  ( 0.008266  0.012408 -0.020368)
 75:   3107.44   0.001270    6.42  0.000128  ( 0.001153  0.011226 -0.000476)
 76:   3110.91   0.002158   10.90  0.000216  ( 0.008351 -0.003251 -0.011668)
 77:   3149.96   0.004959   25.06  0.000491  (-0.006667 -0.020697  0.004295)
 78:   3158.47   0.003164   15.99  0.000313  (-0.009678 -0.004874 -0.013969)
 79:   3167.56   0.001137    5.75  0.000112  (-0.004953 -0.007246  0.005916)
 80:   3168.80   0.001329    6.71  0.000131  ( 0.007863  0.001773 -0.008116)

--------------------------
THERMOCHEMISTRY AT 298.15K
--------------------------

Temperature         ... 298.15 K
Pressure            ... 1.00 atm
Total Mass          ... 201.20 AMU

Throughout the following assumptions are being made:
  (1) The electronic state is orbitally nondegenerate
  (2) There are no thermally accessible electronically excited states
  (3) Hindered rotations indicated by low frequency modes are not
      treated as such but are treated as vibrations and this may
      cause some error
  (4) All equations used are the standard statistical mechanics
      equations for an ideal gas
  (5) All vibrations are strictly harmonic

freq.      19.57  E(vib)   ...       0.56
freq.      26.15  E(vib)   ...       0.56
freq.      36.78  E(vib)   ...       0.54
freq.      46.16  E(vib)   ...       0.53
freq.      81.85  E(vib)   ...       0.48
freq.      96.71  E(vib)   ...       0.46
freq.     101.46  E(vib)   ...       0.46
freq.     110.66  E(vib)   ...       0.45
freq.     139.95  E(vib)   ...       0.41
freq.     199.55  E(vib)   ...       0.35
freq.     207.98  E(vib)   ...       0.34
freq.     213.71  E(vib)   ...       0.34
freq.     255.03  E(vib)   ...       0.30
freq.     319.79  E(vib)   ...       0.25
freq.     349.70  E(vib)   ...       0.23
freq.     388.64  E(vib)   ...       0.20
freq.     401.46  E(vib)   ...       0.19
freq.     424.72  E(vib)   ...       0.18
freq.     443.96  E(vib)   ...       0.17
freq.     531.35  E(vib)   ...       0.13
freq.     564.22  E(vib)   ...       0.11
freq.     572.47  E(vib)   ...       0.11
freq.     591.65  E(vib)   ...       0.10
freq.     623.55  E(vib)   ...       0.09
freq.     640.20  E(vib)   ...       0.09
freq.     700.18  E(vib)   ...       0.07
freq.     806.98  E(vib)   ...       0.05
freq.     840.22  E(vib)   ...       0.04
freq.     872.02  E(vib)   ...       0.04
freq.     966.41  E(vib)   ...       0.03
freq.     977.75  E(vib)   ...       0.03
freq.     995.25  E(vib)   ...       0.02
freq.    1018.01  E(vib)   ...       0.02
freq.    1062.45  E(vib)   ...       0.02
freq.    1087.67  E(vib)   ...       0.02
freq.    1103.88  E(vib)   ...       0.02
freq.    1132.89  E(vib)   ...       0.01
freq.    1153.84  E(vib)   ...       0.01
freq.    1178.62  E(vib)   ...       0.01
freq.    1223.11  E(vib)   ...       0.01
freq.    1260.70  E(vib)   ...       0.01
freq.    1295.01  E(vib)   ...       0.01
freq.    1311.02  E(vib)   ...       0.01
freq.    1325.49  E(vib)   ...       0.01
freq.    1354.77  E(vib)   ...       0.01
freq.    1373.07  E(vib)   ...       0.01
freq.    1406.56  E(vib)   ...       0.00
freq.    1426.06  E(vib)   ...       0.00
freq.    1446.52  E(vib)   ...       0.00
freq.    1480.48  E(vib)   ...       0.00
freq.    1487.28  E(vib)   ...       0.00
freq.    1489.91  E(vib)   ...       0.00
freq.    1496.99  E(vib)   ...       0.00
freq.    1510.77  E(vib)   ...       0.00
freq.    1516.28  E(vib)   ...       0.00
freq.    1518.19  E(vib)   ...       0.00
freq.    1520.69  E(vib)   ...       0.00
freq.    1527.32  E(vib)   ...       0.00
freq.    1548.86  E(vib)   ...       0.00
freq.    1689.72  E(vib)   ...       0.00
freq.    1698.59  E(vib)   ...       0.00
freq.    1735.01  E(vib)   ...       0.00
freq.    2995.83  E(vib)   ...       0.00
freq.    3006.62  E(vib)   ...       0.00
freq.    3048.62  E(vib)   ...       0.00
freq.    3049.41  E(vib)   ...       0.00
freq.    3052.93  E(vib)   ...       0.00
freq.    3066.96  E(vib)   ...       0.00
freq.    3071.77  E(vib)   ...       0.00
freq.    3107.44  E(vib)   ...       0.00
freq.    3110.91  E(vib)   ...       0.00
freq.    3149.96  E(vib)   ...       0.00
freq.    3158.47  E(vib)   ...       0.00
freq.    3167.56  E(vib)   ...       0.00
freq.    3168.80  E(vib)   ...       0.00

------------
INNER ENERGY
------------

The inner energy is: U= E(el) + E(ZPE) + E(vib) + E(rot) + E(trans)
    E(el)   - is the total energy from the electronic structure calculation
              = E(kin-el) + E(nuc-el) + E(el-el) + E(nuc-nuc)
    E(ZPE)  - the the zero temperature vibrational energy from the frequency calculation
    E(vib)  - the the finite temperature correction to E(ZPE) due to population
              of excited vibrational states
    E(rot)  - is the rotational thermal energy
    E(trans)- is the translational thermal energy

Summary of contributions to the inner energy U:
Electronic energy                ...   -722.84330554 Eh
Zero point energy                ...      0.21661073 Eh     135.92 kcal/mol
Thermal vibrational correction   ...      0.01295219 Eh       8.13 kcal/mol
Thermal rotational correction    ...      0.00141627 Eh       0.89 kcal/mol
Thermal translational correction ...      0.00141627 Eh       0.89 kcal/mol
-----------------------------------------------------------------------
Total thermal energy                   -722.61091008 Eh

Summary of corrections to the electronic energy:
(perhaps to be used in another calculation)
Total thermal correction                  0.01578473 Eh       9.91 kcal/mol
Non-thermal (ZPE) correction              0.21661073 Eh     135.92 kcal/mol
-----------------------------------------------------------------------
Total correction                          0.23239546 Eh     145.83 kcal/mol

--------
ENTHALPY
--------

The enthalpy is H = U + kB*T
                kB is Boltzmann's constant
Total free energy                 ...   -722.61091008 Eh
Thermal Enthalpy correction       ...      0.00094421 Eh       0.59 kcal/mol
-----------------------------------------------------------------------
Total Enthalpy                    ...   -722.60996587 Eh

Note: Only C1 symmetry has been detected, increase convergence thresholds
      if your molecule has a higher symmetry. Symmetry factor of 1.0 is
      used for the rotational entropy correction.

Note: Rotational entropy computed according to Herzberg
Infrared and Raman Spectra, Chapter V,1, Van Nostrand Reinhold, 1945
Point Group:  C1, Symmetry Number:   1
Rotational constants in cm-1:     0.029697     0.014693     0.012038

Vibrational entropy computed according to the QRRHO of S. Grimme
Chem.Eur.J. 2012 18 9955

-------
ENTROPY
-------

The entropy contributions are T*S = T*(S(el)+S(vib)+S(rot)+S(trans))
     S(el)   - electronic entropy
     S(vib)  - vibrational entropy
     S(rot)  - rotational entropy
     S(trans)- translational entropy
The entropies will be listed as multiplied by the temperature to get
units of energy

                             ****ORCA TERMINATED NORMALLY****
TOTAL RUN TIME: 0 days 0 hours 42 minutes 13 seconds 130 msec
