                         Program Version 5.0.4 -  RELEASE  -
|  1> ! OPT FREQ B3LYP 6-31G(d) D4 AUTOAUX
|  2> ! CPCM
|  3>
|  4> %cpcm
|  5> epsilon 9.8629
|  6> refrac  1.4295
|  7> end
|  8>
|  9> %PAL NPROCS 4 END
| 10>
| 11> %maxcore 3375
| 12>
| 13> *xyzfile 0 1 /users/fjb15167/WWenergy/structures/Nse.xyz
| 14>
| 15>                          ****END OF INPUT****
 Total Charge           Charge          ....    0
 Multiplicity           Mult            ....    1
 Number of Electrons    NEL             ....  102
Dispersion correction           -0.049768531
FINAL SINGLE POINT ENERGY      -649.342495761167
Dispersion correction            ... Starting D4
Dispersion correction           -0.049299225
FINAL SINGLE POINT ENERGY      -649.343623285285
Dispersion correction            ... Starting D4
Dispersion correction           -0.049844580
FINAL SINGLE POINT ENERGY      -649.343741875398
Dispersion correction            ... Starting D4
FINAL SINGLE POINT ENERGY      -649.343805867491
FINAL SINGLE POINT ENERGY      -649.343932697123
FINAL SINGLE POINT ENERGY      -649.344008562957
FINAL SINGLE POINT ENERGY      -649.344023614163
FINAL SINGLE POINT ENERGY      -649.344034795271
FINAL SINGLE POINT ENERGY      -649.344040556927
Dispersion correction           -0.049587720
FINAL SINGLE POINT ENERGY      -649.344045888618
Dispersion correction            ... Starting D4
Dispersion correction           -0.049585812
FINAL SINGLE POINT ENERGY      -649.344048452284
Dispersion correction            ... Starting D4
                    ***********************HURRAY********************

CARTESIAN COORDINATES (ANGSTROEM)
---------------------------------
  C     -2.637438    1.766917   -0.508180
  H     -1.760151    2.415750   -0.567121
  H     -3.217310    2.058355    0.375912
  H     -3.259955    1.901365   -1.394335
  C     -2.240306    0.303584   -0.441665
  O     -2.711779   -0.514778   -1.241302
  N     -1.347436   -0.075097    0.526664
  C     -1.012625   -1.490095    0.664820
  H     -1.320310   -1.843111    1.654378
  H     -1.574381   -2.035097   -0.094946
  C     -0.788610    0.841736    1.522290
  H     -1.465276    1.687702    1.650005
  H     -0.745530    0.315513    2.483087
  C      0.612782    1.358808    1.197510
  H      0.902384    2.053676    2.001029
  H      1.337813    0.536668    1.196220
  C      0.491392   -1.781200    0.579607
  N      1.124076   -1.576678   -0.606128
  O      1.081930   -2.181596    1.591832
  C      2.576495   -1.695803   -0.656482
  H      2.870126   -2.222137   -1.570790
  H      3.046350   -0.701814   -0.660149
  H      2.918173   -2.249870    0.216385
  C      0.500824   -0.998179   -1.792927
  H      0.954821   -1.451932   -2.679930
  H     -0.570479   -1.193276   -1.816524
  H      0.659805    0.086683   -1.823449
  O      0.580791    2.014888   -0.066912
  H      1.489823    2.268017   -0.293902

 Multiplicity           Mult            ....    1
 Number of Electrons    NEL             ....  102
 Basis Dimension        Dim             ....  214

ORBITAL ENERGIES
----------------

  NO   OCC          E(Eh)            E(eV)
   0   2.0000     -19.140264      -520.8331
   1   2.0000     -19.107534      -519.9424
   2   2.0000     -19.105057      -519.8750
   3   2.0000     -14.359589      -390.7443
   4   2.0000     -14.356686      -390.6653
   5   2.0000     -10.281562      -279.7755
   6   2.0000     -10.277279      -279.6590
   7   2.0000     -10.222239      -278.1613
   8   2.0000     -10.212400      -277.8935
   9   2.0000     -10.209478      -277.8140
  10   2.0000     -10.195688      -277.4388
  11   2.0000     -10.194456      -277.4053
  12   2.0000     -10.168645      -276.7029
  13   2.0000      -1.031238       -28.0614
  14   2.0000      -1.023726       -27.8570
  15   2.0000      -1.016126       -27.6502
  16   2.0000      -0.931893       -25.3581
  17   2.0000      -0.923758       -25.1367
  18   2.0000      -0.761223       -20.7139
  19   2.0000      -0.745622       -20.2894
  20   2.0000      -0.714874       -19.4527
  21   2.0000      -0.702665       -19.1205
  22   2.0000      -0.668889       -18.2014
  23   2.0000      -0.628768       -17.1096
  24   2.0000      -0.551922       -15.0186
  25   2.0000      -0.536944       -14.6110
  26   2.0000      -0.520546       -14.1648
  27   2.0000      -0.509710       -13.8699
  28   2.0000      -0.476460       -12.9651
  29   2.0000      -0.469532       -12.7766
  30   2.0000      -0.462258       -12.5787
  31   2.0000      -0.452664       -12.3176
  32   2.0000      -0.451182       -12.2773
  33   2.0000      -0.433080       -11.7847
  34   2.0000      -0.411792       -11.2054
  35   2.0000      -0.403850       -10.9893
  36   2.0000      -0.397476       -10.8159
  37   2.0000      -0.394130       -10.7248
  38   2.0000      -0.393672       -10.7124
  39   2.0000      -0.390820       -10.6347
  40   2.0000      -0.385654       -10.4942
  41   2.0000      -0.375492       -10.2177
  42   2.0000      -0.371900       -10.1199
  43   2.0000      -0.355027        -9.6608
  44   2.0000      -0.348609        -9.4861
  45   2.0000      -0.333083        -9.0636
  46   2.0000      -0.270418        -7.3584
  47   2.0000      -0.257193        -6.9986
  48   2.0000      -0.249799        -6.7974
  49   2.0000      -0.235039        -6.3957
  50   2.0000      -0.234165        -6.3720
  51   0.0000       0.018494         0.5032
  52   0.0000       0.029874         0.8129
  53   0.0000       0.071386         1.9425
  54   0.0000       0.112024         3.0483
  55   0.0000       0.119055         3.2396

MULLIKEN ATOMIC CHARGES
-----------------------
   0 C :   -0.569207
   1 H :    0.197949
   2 H :    0.190338
   3 H :    0.176700
   4 C :    0.536302
   5 O :   -0.532270
   6 N :   -0.363273
   7 C :   -0.250441
   8 H :    0.177850
   9 H :    0.206411
  10 C :   -0.183831
  11 H :    0.184964
  12 H :    0.179137
  13 C :   -0.029029
  14 H :    0.144171
  15 H :    0.156748
  16 C :    0.519215
  17 N :   -0.359393
  18 O :   -0.544829
  19 C :   -0.329640
  20 H :    0.170537
  21 H :    0.167499
  22 H :    0.185517
  23 C :   -0.348613
  24 H :    0.166963
  25 H :    0.193065
  26 H :    0.170980
  27 O :   -0.649339
  28 H :    0.435519
Sum of atomic charges:    0.0000000

LOEWDIN ATOMIC CHARGES
----------------------
   0 C :   -0.399237
   1 H :    0.155342
   2 H :    0.154078
   3 H :    0.147894
   4 C :    0.119028
   5 O :   -0.334646
   6 N :   -0.068071
   7 C :   -0.179676
   8 H :    0.143962
   9 H :    0.161932
  10 C :   -0.165776
  11 H :    0.147646
  12 H :    0.145493
  13 C :   -0.113842
  14 H :    0.118806
  15 H :    0.121006
  16 C :    0.092289
  17 N :   -0.070827
  18 O :   -0.339352
  19 C :   -0.279823
  20 H :    0.135781
  21 H :    0.129850
  22 H :    0.147330
  23 C :   -0.289585
  24 H :    0.134879
  25 H :    0.147734
  26 H :    0.130989
  27 O :   -0.427346
  28 H :    0.334142

  Mayer bond orders larger than 0.100000
B(  0-C ,  1-H ) :   0.9086 B(  0-C ,  2-H ) :   0.9216 B(  0-C ,  3-H ) :   0.9394
B(  0-C ,  4-C ) :   0.9943 B(  4-C ,  5-O ) :   1.7488 B(  4-C ,  6-N ) :   1.1563
B(  6-N ,  7-C ) :   0.9525 B(  6-N , 10-C ) :   0.9502 B(  7-C ,  8-H ) :   0.9166
B(  7-C ,  9-H ) :   0.8904 B(  7-C , 16-C ) :   0.9399 B( 10-C , 11-H ) :   0.9190
B( 10-C , 12-H ) :   0.9219 B( 10-C , 13-C ) :   0.9912 B( 13-C , 14-H ) :   0.9219
B( 13-C , 15-H ) :   0.9121 B( 13-C , 27-O ) :   0.9496 B( 16-C , 17-N ) :   1.1988
B( 16-C , 18-O ) :   1.7435 B( 17-N , 19-C ) :   0.9509 B( 17-N , 23-C ) :   0.9470
B( 19-C , 20-H ) :   0.9375 B( 19-C , 21-H ) :   0.9349 B( 19-C , 22-H ) :   0.9257
B( 23-C , 24-H ) :   0.9355 B( 23-C , 25-H ) :   0.9054 B( 23-C , 26-H ) :   0.9179
B( 27-O , 28-H ) :   0.7619

Dispersion correction           -0.049586000
FINAL SINGLE POINT ENERGY      -649.344050098287

DIPOLE MOMENT
-------------
                                X             Y             Z
Electronic contribution:     -3.03844      -4.06935       1.99109
Nuclear contribution   :      4.20618       5.72897      -1.94895
                        -----------------------------------------
Total Dipole Moment    :      1.16774       1.65961       0.04215
                        -----------------------------------------
Magnitude (a.u.)       :      2.02971
Magnitude (Debye)      :      5.15911

Dispersion correction in the Hessian             ... Starting D4

VIBRATIONAL FREQUENCIES
-----------------------

Scaling factor for frequencies =  1.000000000  (already applied!)

   0:         0.00 cm**-1
   1:         0.00 cm**-1
   2:         0.00 cm**-1
   3:         0.00 cm**-1
   4:         0.00 cm**-1
   5:         0.00 cm**-1
   6:        47.66 cm**-1
   7:        67.89 cm**-1
   8:        72.49 cm**-1
   9:        84.57 cm**-1
  10:       104.29 cm**-1
  11:       114.95 cm**-1
  12:       139.70 cm**-1
  13:       160.38 cm**-1
  14:       195.15 cm**-1
  15:       213.46 cm**-1
  16:       220.22 cm**-1
  17:       248.59 cm**-1
  18:       263.86 cm**-1
  19:       278.26 cm**-1
  20:       304.21 cm**-1
  21:       358.63 cm**-1
  22:       400.43 cm**-1
  23:       433.77 cm**-1
  24:       457.05 cm**-1
  25:       492.61 cm**-1
  26:       511.33 cm**-1
  27:       582.52 cm**-1
  28:       595.91 cm**-1
  29:       619.96 cm**-1
  30:       687.19 cm**-1
  31:       757.26 cm**-1
  32:       801.77 cm**-1
  33:       880.65 cm**-1
  34:       923.64 cm**-1
  35:       979.52 cm**-1
  36:      1005.83 cm**-1
  37:      1016.39 cm**-1
  38:      1066.66 cm**-1
  39:      1073.70 cm**-1
  40:      1092.22 cm**-1
  41:      1101.76 cm**-1
  42:      1119.41 cm**-1
  43:      1136.36 cm**-1
  44:      1180.79 cm**-1
  45:      1187.50 cm**-1
  46:      1225.86 cm**-1
  47:      1243.37 cm**-1
  48:      1265.77 cm**-1
  49:      1289.89 cm**-1
  50:      1297.31 cm**-1
  51:      1336.94 cm**-1
  52:      1371.75 cm**-1
  53:      1406.33 cm**-1
  54:      1420.65 cm**-1
  55:      1440.68 cm**-1
  56:      1455.97 cm**-1
  57:      1465.50 cm**-1
  58:      1478.20 cm**-1
  59:      1488.88 cm**-1
  60:      1491.31 cm**-1
  61:      1502.04 cm**-1
  62:      1506.23 cm**-1
  63:      1512.37 cm**-1
  64:      1518.50 cm**-1
  65:      1525.08 cm**-1
  66:      1530.14 cm**-1
  67:      1545.96 cm**-1
  68:      1555.52 cm**-1
  69:      1707.77 cm**-1
  70:      1713.47 cm**-1
  71:      3013.88 cm**-1
  72:      3030.86 cm**-1
  73:      3051.79 cm**-1
  74:      3063.00 cm**-1
  75:      3077.08 cm**-1
  76:      3082.27 cm**-1
  77:      3082.76 cm**-1
  78:      3102.02 cm**-1
  79:      3113.53 cm**-1
  80:      3137.93 cm**-1
  81:      3153.46 cm**-1
  82:      3158.44 cm**-1
  83:      3174.68 cm**-1
  84:      3184.67 cm**-1
  85:      3191.37 cm**-1
  86:      3739.34 cm**-1

IR SPECTRUM
-----------

 Mode   freq       eps      Int      T**2         TX        TY        TZ
       cm**-1   L/(mol*cm) km/mol    a.u.
----------------------------------------------------------------------------
  6:     47.66   0.000257    1.30  0.001681  (-0.039105  0.004788  0.011355)
  7:     67.89   0.001689    8.53  0.007762  ( 0.035415  0.080532 -0.004734)
  8:     72.49   0.000543    2.74  0.002337  ( 0.032795 -0.035519 -0.000098)
  9:     84.57   0.000257    1.30  0.000948  (-0.019771 -0.020036  0.012489)
 10:    104.29   0.000789    3.99  0.002362  (-0.026020  0.036589  0.018596)
 11:    114.95   0.001792    9.06  0.004865  (-0.048265  0.040059  0.030513)
 12:    139.70   0.001837    9.28  0.004103  (-0.059399 -0.018216  0.015584)
 13:    160.38   0.002380   12.03  0.004631  ( 0.002222  0.064621  0.021229)
 14:    195.15   0.009023   45.60  0.014429  (-0.021431  0.100133  0.062797)
 15:    213.46   0.010552   53.32  0.015426  (-0.011008  0.111109  0.054399)
 16:    220.22   0.016065   81.18  0.022765  ( 0.030955 -0.129376 -0.071193)
 17:    248.59   0.005014   25.34  0.006295  ( 0.012553 -0.074178 -0.025194)
 18:    263.86   0.003999   20.21  0.004729  (-0.012643 -0.065743 -0.015723)
 19:    278.26   0.000942    4.76  0.001057  ( 0.004566  0.004912 -0.031810)
 20:    304.21   0.001410    7.12  0.001446  ( 0.009996 -0.021939  0.029406)
 21:    358.63   0.002456   12.41  0.002137  (-0.031399 -0.004027  0.033695)
 22:    400.43   0.001316    6.65  0.001025  ( 0.023866  0.018774 -0.010163)
 23:    433.77   0.000836    4.22  0.000601  ( 0.021089 -0.009767 -0.007813)
 24:    457.05   0.002340   11.83  0.001598  ( 0.026936  0.015466  0.025165)
 25:    492.61   0.003057   15.45  0.001936  ( 0.030210 -0.029961 -0.011228)
 26:    511.33   0.005410   27.34  0.003302  (-0.033320 -0.044204  0.015410)
 27:    582.52   0.002903   14.67  0.001555  (-0.036791  0.013696 -0.003726)
 28:    595.91   0.001712    8.65  0.000897  (-0.021766  0.006208 -0.019605)
 29:    619.96   0.005925   29.94  0.002982  (-0.019371 -0.023274  0.045445)
 30:    687.19   0.001461    7.38  0.000663  ( 0.000047 -0.003214  0.025555)
 31:    757.26   0.001511    7.63  0.000623  (-0.018723  0.008268  0.014270)
 32:    801.77   0.006823   34.48  0.002656  (-0.017155  0.008113  0.047912)
 33:    880.65   0.003666   18.53  0.001299  (-0.023012 -0.004792  0.027324)
 34:    923.64   0.000732    3.70  0.000247  (-0.011151 -0.006089  0.009267)
 35:    979.52   0.002649   13.39  0.000844  ( 0.010443  0.000492 -0.027105)
 36:   1005.83   0.004896   24.74  0.001519  ( 0.025196  0.008953 -0.028353)
 37:   1016.39   0.005878   29.70  0.001805  ( 0.037727  0.013468  0.014138)
 38:   1066.66   0.003155   15.94  0.000923  (-0.029573  0.006803 -0.001464)
 39:   1073.70   0.015682   79.25  0.004558  (-0.018174  0.035526 -0.054456)
 40:   1092.22   0.001389    7.02  0.000397  ( 0.018346 -0.000162  0.007759)
 41:   1101.76   0.011736   59.31  0.003324  ( 0.008318 -0.024257  0.051637)
 42:   1119.41   0.004195   21.20  0.001169  ( 0.013535 -0.001288 -0.031377)
 43:   1136.36   0.001330    6.72  0.000365  (-0.013416  0.013584  0.000803)
 44:   1180.79   0.011653   58.89  0.003080  ( 0.020407  0.003120 -0.051513)
 45:   1187.50   0.000465    2.35  0.000122  ( 0.008559 -0.004910 -0.004977)
 46:   1225.86   0.011554   58.39  0.002941  ( 0.005005  0.031047 -0.044184)
 47:   1243.37   0.022475  113.58  0.005641  (-0.035476  0.029571 -0.059226)
 48:   1265.77   0.013529   68.37  0.003335  (-0.039810  0.015998 -0.038660)
 49:   1289.89   0.014196   71.74  0.003434  (-0.057710  0.008539  0.005567)
 50:   1297.31   0.017702   89.46  0.004258  (-0.039243  0.049540 -0.016243)
 51:   1336.94   0.004496   22.72  0.001050  ( 0.020433  0.021451 -0.013109)
 52:   1371.75   0.000705    3.56  0.000160  ( 0.003933 -0.002095  0.011852)
 53:   1406.33   0.004321   21.83  0.000959  ( 0.004456  0.030485  0.003093)
 54:   1420.65   0.005328   26.93  0.001170  ( 0.016057  0.015508  0.025923)
 55:   1440.68   0.014815   74.87  0.003209  (-0.037835 -0.007202  0.041541)
 56:   1455.97   0.013773   69.60  0.002952  ( 0.049003 -0.006014 -0.022682)
 57:   1465.50   0.020410  103.14  0.004346  (-0.056255  0.022332 -0.026129)
 58:   1478.20   0.035073  177.24  0.007404  (-0.056838  0.021212 -0.061023)
 59:   1488.88   0.002788   14.09  0.000584  (-0.003564  0.022960  0.006662)
 60:   1491.31   0.001661    8.39  0.000348  ( 0.005128  0.001923 -0.017821)
 61:   1502.04   0.005317   26.87  0.001105  ( 0.015926 -0.025245  0.014622)
 62:   1506.23   0.003939   19.90  0.000816  ( 0.001145  0.013029 -0.025396)
 63:   1512.37   0.000901    4.55  0.000186  ( 0.009508  0.003711  0.009039)
 64:   1518.50   0.003344   16.90  0.000687  ( 0.004145  0.025420 -0.004893)
 65:   1525.08   0.001155    5.84  0.000236  ( 0.008203  0.002618 -0.012736)
 66:   1530.14   0.007439   37.60  0.001517  ( 0.011002  0.032415  0.018586)
 67:   1545.96   0.002752   13.91  0.000555  ( 0.010794  0.008899 -0.018968)
 68:   1555.52   0.016483   83.30  0.003307  ( 0.044917 -0.005650 -0.035459)
 69:   1707.77   0.129542  654.65  0.023671  ( 0.070748  0.046026  0.128638)
 70:   1713.47   0.082159  415.20  0.014963  (-0.003210  0.057401 -0.107972)
 71:   3013.88   0.017411   87.99  0.001803  ( 0.017840  0.015931  0.035082)
 72:   3030.86   0.011284   57.02  0.001162  (-0.030537 -0.013954  0.005880)
 73:   3051.79   0.011700   59.13  0.001196  (-0.007315 -0.012115  0.031561)
 74:   3063.00   0.001181    5.97  0.000120  ( 0.009309 -0.005215 -0.002552)
 75:   3077.08   0.006339   32.03  0.000643  ( 0.000331  0.005836  0.024671)
 76:   3082.27   0.010837   54.77  0.001097  (-0.001789  0.022849 -0.023914)
 77:   3082.76   0.007996   40.41  0.000809  ( 0.016649 -0.021576 -0.008165)
 78:   3102.02   0.010218   51.64  0.001028  (-0.007940  0.024435  0.019179)
 79:   3113.53   0.005305   26.81  0.000532  ( 0.006089 -0.017205 -0.014095)
 80:   3137.93   0.001412    7.13  0.000140  ( 0.002163 -0.001153  0.011593)
 81:   3153.46   0.005331   26.94  0.000528  ( 0.013746 -0.018400  0.000056)
 82:   3158.44   0.001839    9.30  0.000182  (-0.011782  0.005155  0.004044)
 83:   3174.68   0.001667    8.42  0.000164  ( 0.005811  0.000059  0.011405)
 84:   3184.67   0.000513    2.59  0.000050  ( 0.001178 -0.006962 -0.000630)
 85:   3191.37   0.000998    5.04  0.000098  (-0.006388  0.004258 -0.006216)
 86:   3739.34   0.012084   61.07  0.001008  (-0.026168 -0.012445  0.012991)

--------------------------
THERMOCHEMISTRY AT 298.15K
--------------------------

Temperature         ... 298.15 K
Pressure            ... 1.00 atm
Total Mass          ... 188.23 AMU

Throughout the following assumptions are being made:
  (1) The electronic state is orbitally nondegenerate
  (2) There are no thermally accessible electronically excited states
  (3) Hindered rotations indicated by low frequency modes are not
      treated as such but are treated as vibrations and this may
      cause some error
  (4) All equations used are the standard statistical mechanics
      equations for an ideal gas
  (5) All vibrations are strictly harmonic

freq.      47.66  E(vib)   ...       0.53
freq.      67.89  E(vib)   ...       0.50
freq.      72.49  E(vib)   ...       0.49
freq.      84.57  E(vib)   ...       0.48
freq.     104.29  E(vib)   ...       0.46
freq.     114.95  E(vib)   ...       0.44
freq.     139.70  E(vib)   ...       0.42
freq.     160.38  E(vib)   ...       0.39
freq.     195.15  E(vib)   ...       0.36
freq.     213.46  E(vib)   ...       0.34
freq.     220.22  E(vib)   ...       0.33
freq.     248.59  E(vib)   ...       0.31
freq.     263.86  E(vib)   ...       0.29
freq.     278.26  E(vib)   ...       0.28
freq.     304.21  E(vib)   ...       0.26
freq.     358.63  E(vib)   ...       0.22
freq.     400.43  E(vib)   ...       0.19
freq.     433.77  E(vib)   ...       0.17
freq.     457.05  E(vib)   ...       0.16
freq.     492.61  E(vib)   ...       0.14
freq.     511.33  E(vib)   ...       0.14
freq.     582.52  E(vib)   ...       0.11
freq.     595.91  E(vib)   ...       0.10
freq.     619.96  E(vib)   ...       0.09
freq.     687.19  E(vib)   ...       0.07
freq.     757.26  E(vib)   ...       0.06
freq.     801.77  E(vib)   ...       0.05
freq.     880.65  E(vib)   ...       0.04
freq.     923.64  E(vib)   ...       0.03
freq.     979.52  E(vib)   ...       0.03
freq.    1005.83  E(vib)   ...       0.02
freq.    1016.39  E(vib)   ...       0.02
freq.    1066.66  E(vib)   ...       0.02
freq.    1073.70  E(vib)   ...       0.02
freq.    1092.22  E(vib)   ...       0.02
freq.    1101.76  E(vib)   ...       0.02
freq.    1119.41  E(vib)   ...       0.01
freq.    1136.36  E(vib)   ...       0.01
freq.    1180.79  E(vib)   ...       0.01
freq.    1187.50  E(vib)   ...       0.01
freq.    1225.86  E(vib)   ...       0.01
freq.    1243.37  E(vib)   ...       0.01
freq.    1265.77  E(vib)   ...       0.01
freq.    1289.89  E(vib)   ...       0.01
freq.    1297.31  E(vib)   ...       0.01
freq.    1336.94  E(vib)   ...       0.01
freq.    1371.75  E(vib)   ...       0.01
freq.    1406.33  E(vib)   ...       0.00
freq.    1420.65  E(vib)   ...       0.00
freq.    1440.68  E(vib)   ...       0.00
freq.    1455.97  E(vib)   ...       0.00
freq.    1465.50  E(vib)   ...       0.00
freq.    1478.20  E(vib)   ...       0.00
freq.    1488.88  E(vib)   ...       0.00
freq.    1491.31  E(vib)   ...       0.00
freq.    1502.04  E(vib)   ...       0.00
freq.    1506.23  E(vib)   ...       0.00
freq.    1512.37  E(vib)   ...       0.00
freq.    1518.50  E(vib)   ...       0.00
freq.    1525.08  E(vib)   ...       0.00
freq.    1530.14  E(vib)   ...       0.00
freq.    1545.96  E(vib)   ...       0.00
freq.    1555.52  E(vib)   ...       0.00
freq.    1707.77  E(vib)   ...       0.00
freq.    1713.47  E(vib)   ...       0.00
freq.    3013.88  E(vib)   ...       0.00
freq.    3030.86  E(vib)   ...       0.00
freq.    3051.79  E(vib)   ...       0.00
freq.    3063.00  E(vib)   ...       0.00
freq.    3077.08  E(vib)   ...       0.00
freq.    3082.27  E(vib)   ...       0.00
freq.    3082.76  E(vib)   ...       0.00
freq.    3102.02  E(vib)   ...       0.00
freq.    3113.53  E(vib)   ...       0.00
freq.    3137.93  E(vib)   ...       0.00
freq.    3153.46  E(vib)   ...       0.00
freq.    3158.44  E(vib)   ...       0.00
freq.    3174.68  E(vib)   ...       0.00
freq.    3184.67  E(vib)   ...       0.00
freq.    3191.37  E(vib)   ...       0.00
freq.    3739.34  E(vib)   ...       0.00

------------
INNER ENERGY
------------

The inner energy is: U= E(el) + E(ZPE) + E(vib) + E(rot) + E(trans)
    E(el)   - is the total energy from the electronic structure calculation
              = E(kin-el) + E(nuc-el) + E(el-el) + E(nuc-nuc)
    E(ZPE)  - the the zero temperature vibrational energy from the frequency calculation
    E(vib)  - the the finite temperature correction to E(ZPE) due to population
              of excited vibrational states
    E(rot)  - is the rotational thermal energy
    E(trans)- is the translational thermal energy

Summary of contributions to the inner energy U:
Electronic energy                ...   -649.34405010 Eh
Zero point energy                ...      0.24975801 Eh     156.73 kcal/mol
Thermal vibrational correction   ...      0.01235402 Eh       7.75 kcal/mol
Thermal rotational correction    ...      0.00141627 Eh       0.89 kcal/mol
Thermal translational correction ...      0.00141627 Eh       0.89 kcal/mol
-----------------------------------------------------------------------
Total thermal energy                   -649.07910553 Eh

Summary of corrections to the electronic energy:
(perhaps to be used in another calculation)
Total thermal correction                  0.01518656 Eh       9.53 kcal/mol
Non-thermal (ZPE) correction              0.24975801 Eh     156.73 kcal/mol
-----------------------------------------------------------------------
Total correction                          0.26494457 Eh     166.25 kcal/mol

--------
ENTHALPY
--------

The enthalpy is H = U + kB*T
                kB is Boltzmann's constant
Total free energy                 ...   -649.07910553 Eh
Thermal Enthalpy correction       ...      0.00094421 Eh       0.59 kcal/mol
-----------------------------------------------------------------------
Total Enthalpy                    ...   -649.07816132 Eh

Note: Only C1 symmetry has been detected, increase convergence thresholds
      if your molecule has a higher symmetry. Symmetry factor of 1.0 is
      used for the rotational entropy correction.

Note: Rotational entropy computed according to Herzberg
Infrared and Raman Spectra, Chapter V,1, Van Nostrand Reinhold, 1945
Point Group:  C1, Symmetry Number:   1
Rotational constants in cm-1:     0.035366     0.020660     0.018660

Vibrational entropy computed according to the QRRHO of S. Grimme
Chem.Eur.J. 2012 18 9955

-------
ENTROPY
-------

The entropy contributions are T*S = T*(S(el)+S(vib)+S(rot)+S(trans))

                             ****ORCA TERMINATED NORMALLY****
TOTAL RUN TIME: 0 days 0 hours 21 minutes 49 seconds 987 msec
