                         Program Version 5.0.4 -  RELEASE  -
|  1> ! OPT FREQ B3LYP 6-31+G(d) D4 AUTOAUX CPCM(water)
|  2>
|  3> %PAL NPROCS 4 END
|  4>
|  5> %maxcore 3375
|  6>
|  7> *xyzfile -1 1 /users/fjb15167/WWenergy/structures/Ne.xyz
|  8>
|  9>                          ****END OF INPUT****
 Total Charge           Charge          ....   -1
 Multiplicity           Mult            ....    1
 Number of Electrons    NEL             ....  116
Dispersion correction           -0.055858703
FINAL SINGLE POINT ENERGY      -762.236758699215
Dispersion correction            ... Starting D4
Dispersion correction           -0.054144748
FINAL SINGLE POINT ENERGY      -762.239295256656
Dispersion correction            ... Starting D4
Dispersion correction           -0.054455858
FINAL SINGLE POINT ENERGY      -762.239660936062
Dispersion correction            ... Starting D4
FINAL SINGLE POINT ENERGY      -762.239970790262
FINAL SINGLE POINT ENERGY      -762.241117516808
FINAL SINGLE POINT ENERGY      -762.241622892172
FINAL SINGLE POINT ENERGY      -762.241973013771
FINAL SINGLE POINT ENERGY      -762.242309381826
FINAL SINGLE POINT ENERGY      -762.242560371098
FINAL SINGLE POINT ENERGY      -762.242712898247
FINAL SINGLE POINT ENERGY      -762.242757574824
FINAL SINGLE POINT ENERGY      -762.242794773693
FINAL SINGLE POINT ENERGY      -762.242814054492
FINAL SINGLE POINT ENERGY      -762.242822468786
FINAL SINGLE POINT ENERGY      -762.242830422919
FINAL SINGLE POINT ENERGY      -762.242838683021
FINAL SINGLE POINT ENERGY      -762.242844126618
Dispersion correction           -0.054297104
FINAL SINGLE POINT ENERGY      -762.242851181956
Dispersion correction            ... Starting D4
Dispersion correction           -0.054301997
FINAL SINGLE POINT ENERGY      -762.242855387988
Dispersion correction            ... Starting D4
                    ***********************HURRAY********************

CARTESIAN COORDINATES (ANGSTROEM)
---------------------------------
  C     -0.328498    2.989295    0.610299
  H     -1.048079    2.292050    1.049596
  H     -0.812211    3.472208   -0.248038
  H     -0.076196    3.756486    1.344813
  C      0.956046    2.307298    0.180211
  O      2.061124    2.784881    0.502072
  N      0.853763    1.169508   -0.561899
  C      2.065565    0.521949   -1.061598
  H      2.077441    0.571888   -2.155003
  H      2.927426    1.071419   -0.679736
  C     -0.434515    0.624902   -1.029919
  H     -1.139687    1.443120   -1.173244
  H     -0.256019    0.190415   -2.019048
  C     -1.036913   -0.426449   -0.091679
  H     -0.381704   -1.298052   -0.004981
  H     -1.126894   -0.009446    0.920847
  C      2.158126   -0.967721   -0.705482
  N      2.287280   -1.316492    0.596656
  O      2.118274   -1.808754   -1.624227
  C      2.275306   -0.370609    1.711061
  H      1.266476   -0.276738    2.134072
  H      2.946942   -0.746901    2.488910
  H      2.624802    0.613473    1.403184
  C      2.231278   -2.725704    0.978652
  H      1.259421   -2.955110    1.437145
  H      2.369801   -3.349967    0.097140
  H      3.021473   -2.935725    1.706950
  C     -2.438995   -0.917351   -0.513969
  O     -3.105205   -0.203385   -1.320404
  O     -2.828628   -2.004485    0.009620

 Multiplicity           Mult            ....    1
 Number of Electrons    NEL             ....  116
 Basis Dimension        Dim             ....  300

ORBITAL ENERGIES
----------------

  NO   OCC          E(Eh)            E(eV)
   0   2.0000     -19.122926      -520.3613
   1   2.0000     -19.122516      -520.3501
   2   2.0000     -19.089554      -519.4532
   3   2.0000     -19.087594      -519.3998
   4   2.0000     -14.371036      -391.0558
   5   2.0000     -14.370176      -391.0324
   6   2.0000     -10.292277      -280.0671
   7   2.0000     -10.291239      -280.0389
   8   2.0000     -10.267371      -279.3894
   9   2.0000     -10.219065      -278.0749
  10   2.0000     -10.210182      -277.8332
  11   2.0000     -10.204107      -277.6679
  12   2.0000     -10.201446      -277.5955
  13   2.0000     -10.177170      -276.9349
  14   2.0000     -10.169459      -276.7250
  15   2.0000      -1.041952       -28.3530
  16   2.0000      -1.035805       -28.1857
  17   2.0000      -1.016476       -27.6597
  18   2.0000      -0.942623       -25.6501
  19   2.0000      -0.934456       -25.4278
  20   2.0000      -0.927831       -25.2476
  21   2.0000      -0.770924       -20.9779
  22   2.0000      -0.754604       -20.5338
  23   2.0000      -0.723459       -19.6863
  24   2.0000      -0.712260       -19.3816
  25   2.0000      -0.679087       -18.4789
  26   2.0000      -0.650219       -17.6934
  27   2.0000      -0.558104       -15.1868
  28   2.0000      -0.542771       -14.7695
  29   2.0000      -0.516974       -14.0676
  30   2.0000      -0.497716       -13.5435
  31   2.0000      -0.488973       -13.3056
  32   2.0000      -0.481791       -13.1102
  33   2.0000      -0.471114       -12.8197
  34   2.0000      -0.461418       -12.5558
  35   2.0000      -0.452501       -12.3132
  36   2.0000      -0.441808       -12.0222
  37   2.0000      -0.424053       -11.5391
  38   2.0000      -0.416568       -11.3354
  39   2.0000      -0.410384       -11.1671
  40   2.0000      -0.406690       -11.0666
  41   2.0000      -0.402103       -10.9418
  42   2.0000      -0.399541       -10.8721
  43   2.0000      -0.397088       -10.8053
  44   2.0000      -0.389206       -10.5908
  45   2.0000      -0.382587       -10.4107
  46   2.0000      -0.378750       -10.3063
  47   2.0000      -0.369251       -10.0478
  48   2.0000      -0.365099        -9.9349
  49   2.0000      -0.353190        -9.6108
  50   2.0000      -0.334215        -9.0945
  51   2.0000      -0.271666        -7.3924
  52   2.0000      -0.264502        -7.1975
  53   2.0000      -0.254069        -6.9136
  54   2.0000      -0.249590        -6.7917
  55   2.0000      -0.247909        -6.7460
  56   2.0000      -0.233005        -6.3404
  57   2.0000      -0.228854        -6.2274
  58   0.0000       0.000065         0.0018
  59   0.0000       0.009150         0.2490
  60   0.0000       0.013756         0.3743
  61   0.0000       0.020065         0.5460
  62   0.0000       0.024299         0.6612

MULLIKEN ATOMIC CHARGES
-----------------------
   0 C :   -0.939442
   1 H :    0.252757
   2 H :    0.260632
   3 H :    0.241010
   4 C :    0.709943
   5 O :   -0.607694
   6 N :    0.022759
   7 C :   -0.594335
   8 H :    0.249375
   9 H :    0.269776
  10 C :   -0.829219
  11 H :    0.243360
  12 H :    0.241663
  13 C :   -0.215156
  14 H :    0.238751
  15 H :    0.234379
  16 C :    0.474961
  17 N :   -0.071530
  18 O :   -0.600447
  19 C :   -0.456143
  20 H :    0.239792
  21 H :    0.225466
  22 H :    0.237849
  23 C :   -0.570675
  24 H :    0.232093
  25 H :    0.241998
  26 H :    0.227507
  27 C :    0.485702
  28 O :   -0.712594
  29 O :   -0.732540
Sum of atomic charges:   -1.0000000

LOEWDIN ATOMIC CHARGES
----------------------
   0 C :   -0.467309
   1 H :    0.224735
   2 H :    0.226391
   3 H :    0.216860
   4 C :    0.100671
   5 O :   -0.487780
   6 N :   -0.313405
   7 C :   -0.212850
   8 H :    0.239408
   9 H :    0.260308
  10 C :   -0.244786
  11 H :    0.233702
  12 H :    0.232255
  13 C :   -0.352160
  14 H :    0.231381
  15 H :    0.229857
  16 C :    0.091106
  17 N :   -0.323578
  18 O :   -0.469061
  19 C :   -0.354180
  20 H :    0.221255
  21 H :    0.210398
  22 H :    0.237291
  23 C :   -0.357127
  24 H :    0.213408
  25 H :    0.230189
  26 H :    0.209216
  27 C :    0.127957
  28 O :   -0.571301
  29 O :   -0.582849

  Mayer bond orders larger than 0.100000
B(  0-C ,  1-H ) :   0.9406 B(  0-C ,  2-H ) :   0.9471 B(  0-C ,  3-H ) :   0.9955
B(  0-C ,  4-C ) :   0.4783 B(  0-C ,  6-N ) :  -0.1272 B(  4-C ,  5-O ) :   1.7191
B(  4-C ,  6-N ) :   1.2082 B(  6-N ,  7-C ) :   0.7286 B(  6-N , 10-C ) :   0.6396
B(  7-C ,  8-H ) :   1.0506 B(  7-C ,  9-H ) :   0.9768 B(  7-C , 16-C ) :   0.5860
B(  7-C , 17-N ) :  -0.1720 B(  7-C , 18-O ) :  -0.2430 B(  8-H , 16-C ) :  -0.1287
B( 10-C , 11-H ) :   1.0428 B( 10-C , 12-H ) :   1.0335 B( 10-C , 13-C ) :   0.2587
B( 11-H , 13-C ) :  -0.1013 B( 12-H , 13-C ) :  -0.1194 B( 13-C , 14-H ) :   0.8681
B( 13-C , 15-H ) :   0.9082 B( 13-C , 27-C ) :   0.9425 B( 13-C , 28-O ) :  -0.1732
B( 16-C , 17-N ) :   1.3452 B( 16-C , 18-O ) :   1.9747 B( 17-N , 19-C ) :   0.8355
B( 17-N , 23-C ) :   0.8218 B( 19-C , 20-H ) :   0.9213 B( 19-C , 21-H ) :   0.9351
B( 19-C , 22-H ) :   0.9196 B( 19-C , 23-C ) :  -0.1044 B( 23-C , 24-H ) :   0.9467
B( 23-C , 25-H ) :   0.9554 B( 23-C , 26-H ) :   0.9343 B( 27-C , 28-O ) :   1.5591
B( 27-C , 29-O ) :   1.4551

Dispersion correction           -0.054310955
FINAL SINGLE POINT ENERGY      -762.242860879653

DIPOLE MOMENT
-------------
                                X             Y             Z
Electronic contribution:     -1.27572      -0.12815      -5.53729
Nuclear contribution   :      6.54999       2.19744       7.92424
                        -----------------------------------------
Total Dipole Moment    :      5.27427       2.06929       2.38696
                        -----------------------------------------
Magnitude (a.u.)       :      6.14796
Magnitude (Debye)      :     15.62688

Dispersion correction in the Hessian             ... Starting D4

VIBRATIONAL FREQUENCIES
-----------------------

Scaling factor for frequencies =  1.000000000  (already applied!)

   0:         0.00 cm**-1
   1:         0.00 cm**-1
   2:         0.00 cm**-1
   3:         0.00 cm**-1
   4:         0.00 cm**-1
   5:         0.00 cm**-1
   6:       -17.92 cm**-1 ***imaginary mode***
   7:        37.04 cm**-1
   8:        43.96 cm**-1
   9:        49.42 cm**-1
  10:        72.42 cm**-1
  11:        80.87 cm**-1
  12:        97.50 cm**-1
  13:       117.05 cm**-1
  14:       143.35 cm**-1
  15:       159.48 cm**-1
  16:       174.80 cm**-1
  17:       190.40 cm**-1
  18:       225.52 cm**-1
  19:       262.35 cm**-1
  20:       274.54 cm**-1
  21:       345.64 cm**-1
  22:       356.32 cm**-1
  23:       388.30 cm**-1
  24:       428.66 cm**-1
  25:       457.09 cm**-1
  26:       471.89 cm**-1
  27:       504.12 cm**-1
  28:       573.98 cm**-1
  29:       596.60 cm**-1
  30:       600.12 cm**-1
  31:       622.00 cm**-1
  32:       677.38 cm**-1
  33:       714.57 cm**-1
  34:       760.11 cm**-1
  35:       788.55 cm**-1
  36:       831.29 cm**-1
  37:       923.17 cm**-1
  38:       954.88 cm**-1
  39:       998.41 cm**-1
  40:      1011.04 cm**-1
  41:      1044.26 cm**-1
  42:      1061.11 cm**-1
  43:      1068.51 cm**-1
  44:      1084.05 cm**-1
  45:      1107.03 cm**-1
  46:      1128.20 cm**-1
  47:      1168.19 cm**-1
  48:      1178.25 cm**-1
  49:      1214.44 cm**-1
  50:      1249.01 cm**-1
  51:      1279.45 cm**-1
  52:      1285.15 cm**-1
  53:      1298.01 cm**-1
  54:      1331.65 cm**-1
  55:      1369.28 cm**-1
  56:      1394.27 cm**-1
  57:      1398.55 cm**-1
  58:      1411.51 cm**-1
  59:      1439.99 cm**-1
  60:      1453.72 cm**-1
  61:      1471.58 cm**-1
  62:      1476.48 cm**-1
  63:      1480.05 cm**-1
  64:      1484.43 cm**-1
  65:      1495.36 cm**-1
  66:      1498.97 cm**-1
  67:      1501.30 cm**-1
  68:      1507.90 cm**-1
  69:      1523.49 cm**-1
  70:      1526.35 cm**-1
  71:      1545.85 cm**-1
  72:      1576.54 cm**-1
  73:      1648.66 cm**-1
  74:      1656.59 cm**-1
  75:      3036.85 cm**-1
  76:      3044.55 cm**-1
  77:      3048.91 cm**-1
  78:      3061.28 cm**-1
  79:      3082.43 cm**-1
  80:      3086.04 cm**-1
  81:      3105.27 cm**-1
  82:      3110.86 cm**-1
  83:      3115.05 cm**-1
  84:      3128.53 cm**-1
  85:      3151.88 cm**-1
  86:      3161.71 cm**-1
  87:      3166.04 cm**-1
  88:      3186.76 cm**-1
  89:      3188.23 cm**-1

IR SPECTRUM
-----------

 Mode   freq       eps      Int      T**2         TX        TY        TZ
       cm**-1   L/(mol*cm) km/mol    a.u.
----------------------------------------------------------------------------
  7:     37.04   0.002906   14.69  0.024484  ( 0.034407 -0.133200 -0.074549)
  8:     43.96   0.001856    9.38  0.013176  ( 0.090783 -0.057443 -0.040437)
  9:     49.42   0.001861    9.41  0.011753  (-0.080454 -0.033772 -0.064336)
 10:     72.42   0.000209    1.06  0.000902  ( 0.014758  0.005898  0.025490)
 11:     80.87   0.002533   12.80  0.009775  (-0.065599  0.038283  0.063297)
 12:     97.50   0.006116   30.91  0.019576  ( 0.015238 -0.095555  0.101059)
 13:    117.05   0.000369    1.87  0.000985  (-0.017270  0.018704  0.018343)
 14:    143.35   0.000969    4.90  0.002110  ( 0.007868 -0.042481  0.015599)
 15:    159.48   0.000107    0.54  0.000209  ( 0.014339  0.001740 -0.000714)
 16:    174.80   0.000240    1.21  0.000428  ( 0.019226  0.002714 -0.007117)
 17:    190.40   0.000560    2.83  0.000918  ( 0.029412  0.006237  0.003765)
 18:    225.52   0.000988    4.99  0.001367  (-0.025186 -0.026883  0.003088)
 19:    262.35   0.003722   18.81  0.004427  (-0.065831  0.005895 -0.007675)
 20:    274.54   0.000334    1.69  0.000380  (-0.000703 -0.003106  0.019237)
 21:    345.64   0.002723   13.76  0.002458  ( 0.008957  0.003537 -0.048637)
 22:    356.32   0.001423    7.19  0.001246  (-0.023564  0.025469 -0.006506)
 23:    388.30   0.001918    9.69  0.001541  (-0.005224 -0.023426  0.031067)
 24:    428.66   0.001148    5.80  0.000835  ( 0.006231  0.028174 -0.001687)
 25:    457.09   0.003054   15.43  0.002085  ( 0.030487  0.028428  0.018632)
 26:    471.89   0.002686   13.58  0.001777  (-0.001630 -0.033184  0.025937)
 27:    504.12   0.005969   30.16  0.003695  (-0.057199  0.007929  0.018977)
 28:    573.98   0.005293   26.75  0.002877  (-0.012836 -0.051408  0.008360)
 29:    596.60   0.000830    4.20  0.000434  (-0.000557 -0.010892 -0.017758)
 30:    600.12   0.004756   24.03  0.002473  ( 0.028104  0.037208  0.017283)
 31:    622.00   0.004678   23.64  0.002347  ( 0.020199 -0.002273  0.043977)
 32:    677.38   0.004173   21.09  0.001922  ( 0.039162  0.010091 -0.016939)
 33:    714.57   0.004890   24.71  0.002136  (-0.038756 -0.008036 -0.023852)
 34:    760.11   0.003205   16.19  0.001316  ( 0.016853 -0.017688  0.026810)
 35:    788.55   0.003936   19.89  0.001558  (-0.029558  0.025835  0.004054)
 36:    831.29   0.004585   23.17  0.001721  (-0.010217  0.013519  0.037869)
 37:    923.17   0.006025   30.45  0.002037  ( 0.029100  0.027590  0.020703)
 38:    954.88   0.003707   18.74  0.001212  (-0.021829 -0.021884 -0.016006)
 39:    998.41   0.008113   41.00  0.002536  (-0.006499 -0.025250  0.043081)
 40:   1011.04   0.007711   38.97  0.002380  ( 0.027412  0.039686  0.007320)
 41:   1044.26   0.006227   31.47  0.001861  (-0.004800  0.038501  0.018852)
 42:   1061.11   0.001465    7.40  0.000431  (-0.006365  0.011215 -0.016266)
 43:   1068.51   0.001330    6.72  0.000389  ( 0.009589  0.005552 -0.016303)
 44:   1084.05   0.003866   19.54  0.001113  ( 0.004909  0.030256  0.013169)
 45:   1107.03   0.004859   24.55  0.001370  (-0.013097 -0.003555 -0.034430)
 46:   1128.20   0.000747    3.78  0.000207  (-0.003655  0.013654  0.002631)
 47:   1168.19   0.011191   56.56  0.002990  (-0.026434  0.005384 -0.047558)
 48:   1178.25   0.000666    3.36  0.000176  (-0.003105  0.002522  0.012662)
 49:   1214.44   0.011928   60.28  0.003065  (-0.019916  0.002480  0.051598)
 50:   1249.01   0.017538   88.63  0.004382  ( 0.014688  0.057164  0.029973)
 51:   1279.45   0.009081   45.89  0.002215  ( 0.008444  0.031073 -0.034323)
 52:   1285.15   0.028707  145.07  0.006971  ( 0.026384 -0.069803 -0.037444)
 53:   1298.01   0.010276   51.93  0.002471  ( 0.003726  0.047918 -0.012670)
 54:   1331.65   0.011844   59.86  0.002776  (-0.028968 -0.044002 -0.000542)
 55:   1369.28   0.002316   11.70  0.000528  ( 0.011988  0.017013  0.009729)
 56:   1394.27   0.074371  375.84  0.016646  ( 0.115658  0.044290  0.036155)
 57:   1398.55   0.022512  113.77  0.005023  (-0.056318 -0.031394 -0.029428)
 58:   1411.51   0.002587   13.08  0.000572  (-0.011702  0.012648  0.016587)
 59:   1439.99   0.020605  104.13  0.004465  ( 0.008030 -0.027399  0.060417)
 60:   1453.72   0.010841   54.79  0.002327  ( 0.012064 -0.037745  0.027513)
 61:   1471.58   0.042010  212.30  0.008909  (-0.010432 -0.082237 -0.045131)
 62:   1476.48   0.004629   23.39  0.000978  (-0.025756 -0.017744  0.000279)
 63:   1480.05   0.006745   34.09  0.001422  (-0.011812  0.035719  0.002615)
 64:   1484.43   0.012470   63.02  0.002621  (-0.027269  0.043310 -0.001449)
 65:   1495.36   0.004102   20.73  0.000856  ( 0.020631 -0.018725 -0.008937)
 66:   1498.97   0.007805   39.44  0.001625  (-0.012884  0.008980  0.037125)
 67:   1501.30   0.001307    6.60  0.000272  (-0.008768 -0.010928 -0.008679)
 68:   1507.90   0.001586    8.01  0.000328  (-0.011081 -0.000026 -0.014331)
 69:   1523.49   0.010683   53.99  0.002188  (-0.045305 -0.011150  0.003378)
 70:   1526.35   0.007005   35.40  0.001432  ( 0.016968  0.001301 -0.033802)
 71:   1545.85   0.018753   94.77  0.003786  (-0.002378  0.052767 -0.031553)
 72:   1576.54   0.239216  1208.90  0.047351  (-0.024778  0.174006 -0.128293)
 73:   1648.66   0.212402  1073.39  0.040204  (-0.113570 -0.118101 -0.115578)
 74:   1656.59   0.120156  607.22  0.022635  (-0.031451  0.031633  0.143683)
 75:   3036.85   0.009208   46.54  0.000946  ( 0.008399  0.027485 -0.010966)
 76:   3044.55   0.014479   73.17  0.001484  ( 0.014082 -0.000463 -0.035855)
 77:   3048.91   0.004956   25.04  0.000507  ( 0.002394  0.001220 -0.022361)
 78:   3061.28   0.000871    4.40  0.000089  ( 0.007594 -0.004995 -0.002481)
 79:   3082.43   0.002114   10.69  0.000214  ( 0.012716 -0.005265 -0.004966)
 80:   3086.04   0.014533   73.45  0.001470  (-0.000466 -0.006111 -0.037843)
 81:   3105.27   0.008665   43.79  0.000871  (-0.026391  0.006693 -0.011380)
 82:   3110.86   0.006391   32.30  0.000641  (-0.021675  0.004761 -0.012191)
 83:   3115.05   0.005022   25.38  0.000503  ( 0.011218 -0.019164 -0.003157)
 84:   3128.53   0.001810    9.15  0.000181  ( 0.004991  0.003693 -0.011915)
 85:   3151.88   0.002500   12.64  0.000248  ( 0.004248 -0.014051  0.005664)
 86:   3161.71   0.005427   27.43  0.000536  (-0.004404  0.021798  0.006413)
 87:   3166.04   0.002054   10.38  0.000202  (-0.013293  0.001217 -0.004926)
 88:   3186.76   0.000570    2.88  0.000056  ( 0.006704 -0.000771 -0.003204)
 89:   3188.23   0.000945    4.78  0.000093  (-0.000645 -0.008438 -0.004573)

--------------------------
THERMOCHEMISTRY AT 298.15K
--------------------------

Temperature         ... 298.15 K
Pressure            ... 1.00 atm
Total Mass          ... 215.23 AMU

Throughout the following assumptions are being made:
  (1) The electronic state is orbitally nondegenerate
  (2) There are no thermally accessible electronically excited states
  (3) Hindered rotations indicated by low frequency modes are not
      treated as such but are treated as vibrations and this may
      cause some error
  (4) All equations used are the standard statistical mechanics
      equations for an ideal gas
  (5) All vibrations are strictly harmonic

freq.      37.04  E(vib)   ...       0.54
freq.      43.96  E(vib)   ...       0.53
freq.      49.42  E(vib)   ...       0.52
freq.      72.42  E(vib)   ...       0.49
freq.      80.87  E(vib)   ...       0.48
freq.      97.50  E(vib)   ...       0.46
freq.     117.05  E(vib)   ...       0.44
freq.     143.35  E(vib)   ...       0.41
freq.     159.48  E(vib)   ...       0.39
freq.     174.80  E(vib)   ...       0.38
freq.     190.40  E(vib)   ...       0.36
freq.     225.52  E(vib)   ...       0.33
freq.     262.35  E(vib)   ...       0.29
freq.     274.54  E(vib)   ...       0.28
freq.     345.64  E(vib)   ...       0.23
freq.     356.32  E(vib)   ...       0.22
freq.     388.30  E(vib)   ...       0.20
freq.     428.66  E(vib)   ...       0.18
freq.     457.09  E(vib)   ...       0.16
freq.     471.89  E(vib)   ...       0.15
freq.     504.12  E(vib)   ...       0.14
freq.     573.98  E(vib)   ...       0.11
freq.     596.60  E(vib)   ...       0.10
freq.     600.12  E(vib)   ...       0.10
freq.     622.00  E(vib)   ...       0.09
freq.     677.38  E(vib)   ...       0.08
freq.     714.57  E(vib)   ...       0.07
freq.     760.11  E(vib)   ...       0.06
freq.     788.55  E(vib)   ...       0.05
freq.     831.29  E(vib)   ...       0.04
freq.     923.17  E(vib)   ...       0.03
freq.     954.88  E(vib)   ...       0.03
freq.     998.41  E(vib)   ...       0.02
freq.    1011.04  E(vib)   ...       0.02
freq.    1044.26  E(vib)   ...       0.02
freq.    1061.11  E(vib)   ...       0.02
freq.    1068.51  E(vib)   ...       0.02
freq.    1084.05  E(vib)   ...       0.02
freq.    1107.03  E(vib)   ...       0.02
freq.    1128.20  E(vib)   ...       0.01
freq.    1168.19  E(vib)   ...       0.01
freq.    1178.25  E(vib)   ...       0.01
freq.    1214.44  E(vib)   ...       0.01
freq.    1249.01  E(vib)   ...       0.01
freq.    1279.45  E(vib)   ...       0.01
freq.    1285.15  E(vib)   ...       0.01
freq.    1298.01  E(vib)   ...       0.01
freq.    1331.65  E(vib)   ...       0.01
freq.    1369.28  E(vib)   ...       0.01
freq.    1394.27  E(vib)   ...       0.00
freq.    1398.55  E(vib)   ...       0.00
freq.    1411.51  E(vib)   ...       0.00
freq.    1439.99  E(vib)   ...       0.00
freq.    1453.72  E(vib)   ...       0.00
freq.    1471.58  E(vib)   ...       0.00
freq.    1476.48  E(vib)   ...       0.00
freq.    1480.05  E(vib)   ...       0.00
freq.    1484.43  E(vib)   ...       0.00
freq.    1495.36  E(vib)   ...       0.00
freq.    1498.97  E(vib)   ...       0.00
freq.    1501.30  E(vib)   ...       0.00
freq.    1507.90  E(vib)   ...       0.00
freq.    1523.49  E(vib)   ...       0.00
freq.    1526.35  E(vib)   ...       0.00
freq.    1545.85  E(vib)   ...       0.00
freq.    1576.54  E(vib)   ...       0.00
freq.    1648.66  E(vib)   ...       0.00
freq.    1656.59  E(vib)   ...       0.00
freq.    3036.85  E(vib)   ...       0.00
freq.    3044.55  E(vib)   ...       0.00
freq.    3048.91  E(vib)   ...       0.00
freq.    3061.28  E(vib)   ...       0.00
freq.    3082.43  E(vib)   ...       0.00
freq.    3086.04  E(vib)   ...       0.00
freq.    3105.27  E(vib)   ...       0.00
freq.    3110.86  E(vib)   ...       0.00
freq.    3115.05  E(vib)   ...       0.00
freq.    3128.53  E(vib)   ...       0.00
freq.    3151.88  E(vib)   ...       0.00
freq.    3161.71  E(vib)   ...       0.00
freq.    3166.04  E(vib)   ...       0.00
freq.    3186.76  E(vib)   ...       0.00
freq.    3188.23  E(vib)   ...       0.00

------------
INNER ENERGY
------------

The inner energy is: U= E(el) + E(ZPE) + E(vib) + E(rot) + E(trans)
    E(el)   - is the total energy from the electronic structure calculation
              = E(kin-el) + E(nuc-el) + E(el-el) + E(nuc-nuc)
    E(ZPE)  - the the zero temperature vibrational energy from the frequency calculation
    E(vib)  - the the finite temperature correction to E(ZPE) due to population
              of excited vibrational states
    E(rot)  - is the rotational thermal energy
    E(trans)- is the translational thermal energy

Summary of contributions to the inner energy U:
Electronic energy                ...   -762.24286088 Eh
Zero point energy                ...      0.24596327 Eh     154.34 kcal/mol
Thermal vibrational correction   ...      0.01316212 Eh       8.26 kcal/mol
Thermal rotational correction    ...      0.00141627 Eh       0.89 kcal/mol
Thermal translational correction ...      0.00141627 Eh       0.89 kcal/mol
-----------------------------------------------------------------------
Total thermal energy                   -761.98090294 Eh

Summary of corrections to the electronic energy:
(perhaps to be used in another calculation)
Total thermal correction                  0.01599467 Eh      10.04 kcal/mol
Non-thermal (ZPE) correction              0.24596327 Eh     154.34 kcal/mol
-----------------------------------------------------------------------
Total correction                          0.26195794 Eh     164.38 kcal/mol

--------
ENTHALPY
--------

The enthalpy is H = U + kB*T
                kB is Boltzmann's constant
Total free energy                 ...   -761.98090294 Eh
Thermal Enthalpy correction       ...      0.00094421 Eh       0.59 kcal/mol
-----------------------------------------------------------------------
Total Enthalpy                    ...   -761.97995873 Eh

Note: Only C1 symmetry has been detected, increase convergence thresholds
      if your molecule has a higher symmetry. Symmetry factor of 1.0 is
      used for the rotational entropy correction.

Note: Rotational entropy computed according to Herzberg
Infrared and Raman Spectra, Chapter V,1, Van Nostrand Reinhold, 1945
Point Group:  C1, Symmetry Number:   1
Rotational constants in cm-1:     0.020627     0.016121     0.011166

Vibrational entropy computed according to the QRRHO of S. Grimme
Chem.Eur.J. 2012 18 9955

-------
ENTROPY
-------

                             ****ORCA TERMINATED NORMALLY****
TOTAL RUN TIME: 0 days 0 hours 53 minutes 45 seconds 346 msec
