                         Program Version 5.0.4 -  RELEASE  -
|  1> ! OPT FREQ B3LYP 6-31+G(d) D4 AUTOAUX
|  2> ! CPCM
|  3>
|  4> %cpcm
|  5> epsilon 9.8629
|  6> refrac  1.4295
|  7> end
|  8>
|  9> %PAL NPROCS 4 END
| 10>
| 11> %maxcore 3375
| 12>
| 13> *xyzfile -1 1 /users/fjb15167/WWenergy/structures/Nd.xyz
| 14>
| 15>                          ****END OF INPUT****
 Total Charge           Charge          ....   -1
 Multiplicity           Mult            ....    1
 Number of Electrons    NEL             ....  108
Dispersion correction           -0.046392996
FINAL SINGLE POINT ENERGY      -722.939971972717
Dispersion correction            ... Starting D4
Dispersion correction           -0.046076837
FINAL SINGLE POINT ENERGY      -722.942954729449
Dispersion correction            ... Starting D4
Dispersion correction           -0.045973249
FINAL SINGLE POINT ENERGY      -722.942481527289
Dispersion correction            ... Starting D4
FINAL SINGLE POINT ENERGY      -722.944021711598
FINAL SINGLE POINT ENERGY      -722.944207785122
FINAL SINGLE POINT ENERGY      -722.944408364795
FINAL SINGLE POINT ENERGY      -722.944544938594
FINAL SINGLE POINT ENERGY      -722.944641137530
FINAL SINGLE POINT ENERGY      -722.944726426756
FINAL SINGLE POINT ENERGY      -722.944777964627
FINAL SINGLE POINT ENERGY      -722.944860262157
FINAL SINGLE POINT ENERGY      -722.944885317420
FINAL SINGLE POINT ENERGY      -722.944896562510
FINAL SINGLE POINT ENERGY      -722.944902910855
FINAL SINGLE POINT ENERGY      -722.944905632191
FINAL SINGLE POINT ENERGY      -722.944908296366
FINAL SINGLE POINT ENERGY      -722.944911198246
Dispersion correction           -0.046082587
FINAL SINGLE POINT ENERGY      -722.944914066532
Dispersion correction            ... Starting D4
Dispersion correction           -0.046083433
FINAL SINGLE POINT ENERGY      -722.944916513294
Dispersion correction            ... Starting D4
                    ***********************HURRAY********************

CARTESIAN COORDINATES (ANGSTROEM)
---------------------------------
  C      1.455818    2.950804    0.203269
  H      1.313046    3.135665    1.275093
  H      1.430873    3.906288   -0.324203
  H      2.440467    2.489569    0.072015
  C      0.349979    2.071911   -0.347604
  O     -0.473133    2.519675   -1.170759
  N      0.289313    0.788633    0.087549
  C     -0.701595   -0.092651   -0.492788
  H     -0.879538    0.207769   -1.528228
  H     -0.295455   -1.108989   -0.506833
  C      1.233867    0.207645    1.033879
  H      1.537717    0.956549    1.768423
  C     -2.026953   -0.073472    0.288285
  N     -3.040275   -0.830590   -0.209661
  O     -2.149571    0.611348    1.314919
  C     -4.294885   -0.932548    0.531369
  H     -5.130645   -0.934593   -0.176163
  H     -4.327389   -1.862188    1.117012
  H     -4.388977   -0.082326    1.206261
  C     -2.884045   -1.782559   -1.307618
  H     -3.811523   -1.805471   -1.888832
  H     -2.074076   -1.493849   -1.976280
  H     -2.687088   -2.794116   -0.925360
  C      2.512596   -0.417191    0.405006
  O      2.651702   -0.373382   -0.846279
  H      0.712626   -0.574226    1.595502
  O      3.308146   -0.922703    1.249025

 Multiplicity           Mult            ....    1
 Number of Electrons    NEL             ....  108
 Basis Dimension        Dim             ....  278

ORBITAL ENERGIES
----------------

  NO   OCC          E(Eh)            E(eV)
   0   2.0000     -19.112071      -520.0659
   1   2.0000     -19.105352      -519.8831
   2   2.0000     -19.078610      -519.1554
   3   2.0000     -19.076080      -519.0865
   4   2.0000     -14.360222      -390.7615
   5   2.0000     -14.350469      -390.4961
   6   2.0000     -10.280485      -279.7462
   7   2.0000     -10.274453      -279.5821
   8   2.0000     -10.254971      -279.0519
   9   2.0000     -10.208994      -277.8009
  10   2.0000     -10.201979      -277.6100
  11   2.0000     -10.195259      -277.4271
  12   2.0000     -10.194406      -277.4039
  13   2.0000     -10.164099      -276.5792
  14   2.0000      -1.032153       -28.0863
  15   2.0000      -1.019663       -27.7464
  16   2.0000      -1.006136       -27.3784
  17   2.0000      -0.928982       -25.2789
  18   2.0000      -0.924805       -25.1652
  19   2.0000      -0.916851       -24.9488
  20   2.0000      -0.755128       -20.5481
  21   2.0000      -0.720097       -19.5948
  22   2.0000      -0.709580       -19.3086
  23   2.0000      -0.696274       -18.9466
  24   2.0000      -0.663744       -18.0614
  25   2.0000      -0.557914       -15.1816
  26   2.0000      -0.528463       -14.3802
  27   2.0000      -0.508486       -13.8366
  28   2.0000      -0.489279       -13.3140
  29   2.0000      -0.480094       -13.0640
  30   2.0000      -0.468364       -12.7448
  31   2.0000      -0.465050       -12.6547
  32   2.0000      -0.454239       -12.3605
  33   2.0000      -0.434704       -11.8289
  34   2.0000      -0.412871       -11.2348
  35   2.0000      -0.408590       -11.1183
  36   2.0000      -0.406093       -11.0504
  37   2.0000      -0.400399       -10.8954
  38   2.0000      -0.395362       -10.7583
  39   2.0000      -0.392757       -10.6875
  40   2.0000      -0.391172       -10.6443
  41   2.0000      -0.381324       -10.3764
  42   2.0000      -0.373836       -10.1726
  43   2.0000      -0.371570       -10.1109
  44   2.0000      -0.352354        -9.5881
  45   2.0000      -0.340283        -9.2596
  46   2.0000      -0.339529        -9.2391
  47   2.0000      -0.260410        -7.0861
  48   2.0000      -0.251903        -6.8546
  49   2.0000      -0.247948        -6.7470
  50   2.0000      -0.238595        -6.4925
  51   2.0000      -0.237333        -6.4582
  52   2.0000      -0.221415        -6.0250
  53   2.0000      -0.212185        -5.7738
  54   0.0000       0.013812         0.3759
  55   0.0000       0.023338         0.6351
  56   0.0000       0.027080         0.7369
  57   0.0000       0.030820         0.8386
  58   0.0000       0.036874         1.0034

MULLIKEN ATOMIC CHARGES
-----------------------
   0 C :   -0.925902
   1 H :    0.251664
   2 H :    0.235287
   3 H :    0.255472
   4 C :    0.854469
   5 O :   -0.631446
   6 N :    0.097562
   7 C :   -1.199426
   8 H :    0.267628
   9 H :    0.263647
  10 C :   -0.669921
  11 H :    0.241417
  12 C :    0.856688
  13 N :   -0.159042
  14 O :   -0.596731
  15 C :   -0.570161
  16 H :    0.219100
  17 H :    0.226031
  18 H :    0.241287
  19 C :   -0.518030
  20 H :    0.220834
  21 H :    0.232816
  22 H :    0.230307
  23 C :    0.682686
  24 O :   -0.664906
  25 H :    0.240314
  26 O :   -0.681641
Sum of atomic charges:   -1.0000000

LOEWDIN ATOMIC CHARGES
----------------------
   0 C :   -0.466319
   1 H :    0.223112
   2 H :    0.214070
   3 H :    0.226414
   4 C :    0.108774
   5 O :   -0.474257
   6 N :   -0.281061
   7 C :   -0.229908
   8 H :    0.255869
   9 H :    0.249358
  10 C :   -0.251668
  11 H :    0.239083
  12 C :    0.119241
  13 N :   -0.332142
  14 O :   -0.437783
  15 C :   -0.352372
  16 H :    0.205906
  17 H :    0.206976
  18 H :    0.228615
  19 C :   -0.358634
  20 H :    0.209223
  21 H :    0.218555
  22 H :    0.209232
  23 C :    0.120955
  24 O :   -0.527538
  25 H :    0.239184
  26 O :   -0.562886

  Mayer bond orders larger than 0.100000
B(  0-C ,  1-H ) :   0.9552 B(  0-C ,  2-H ) :   1.0033 B(  0-C ,  3-H ) :   0.9501
B(  0-C ,  4-C ) :   0.4080 B(  0-C ,  6-N ) :  -0.1151 B(  4-C ,  5-O ) :   1.6707
B(  4-C ,  6-N ) :   1.2268 B(  5-O ,  7-C ) :  -0.1182 B(  6-N ,  7-C ) :   0.7644
B(  6-N , 10-C ) :   0.7220 B(  7-C ,  8-H ) :   1.0839 B(  7-C ,  9-H ) :   0.9895
B(  7-C , 12-C ) :   0.3262 B(  7-C , 13-N ) :  -0.1111 B(  8-H , 12-C ) :  -0.1166
B( 10-C , 11-H ) :   0.9597 B( 10-C , 23-C ) :   0.7667 B( 10-C , 24-O ) :  -0.1029
B( 10-C , 25-H ) :   0.9552 B( 12-C , 13-N ) :   1.2875 B( 12-C , 14-O ) :   1.7391
B( 13-N , 15-C ) :   0.8549 B( 13-N , 19-C ) :   0.8390 B( 15-C , 16-H ) :   0.9362
B( 15-C , 17-H ) :   0.9452 B( 15-C , 18-H ) :   0.9469 B( 19-C , 20-H ) :   0.9349
B( 19-C , 21-H ) :   0.9312 B( 19-C , 22-H ) :   0.9336 B( 23-C , 24-O ) :   1.5972
B( 23-C , 26-O ) :   1.4609

Dispersion correction           -0.046082606
FINAL SINGLE POINT ENERGY      -722.944918998805

DIPOLE MOMENT
-------------
                                X             Y             Z
Electronic contribution:      6.21594       2.27046       0.61150
Nuclear contribution   :    -11.85029      -3.10660      -0.90718
                        -----------------------------------------
Total Dipole Moment    :     -5.63435      -0.83614      -0.29568
                        -----------------------------------------
Magnitude (a.u.)       :      5.70372
Magnitude (Debye)      :     14.49771

Dispersion correction in the Hessian             ... Starting D4

VIBRATIONAL FREQUENCIES
-----------------------

Scaling factor for frequencies =  1.000000000  (already applied!)

   0:         0.00 cm**-1
   1:         0.00 cm**-1
   2:         0.00 cm**-1
   3:         0.00 cm**-1
   4:         0.00 cm**-1
   5:         0.00 cm**-1
   6:        26.62 cm**-1
   7:        41.65 cm**-1
   8:        49.88 cm**-1
   9:        58.91 cm**-1
  10:        59.13 cm**-1
  11:        72.45 cm**-1
  12:        73.60 cm**-1
  13:       103.90 cm**-1
  14:       128.36 cm**-1
  15:       178.26 cm**-1
  16:       194.71 cm**-1
  17:       227.72 cm**-1
  18:       246.56 cm**-1
  19:       316.90 cm**-1
  20:       360.79 cm**-1
  21:       394.37 cm**-1
  22:       414.36 cm**-1
  23:       436.08 cm**-1
  24:       453.36 cm**-1
  25:       522.00 cm**-1
  26:       561.01 cm**-1
  27:       585.43 cm**-1
  28:       595.25 cm**-1
  29:       619.37 cm**-1
  30:       645.05 cm**-1
  31:       702.97 cm**-1
  32:       810.28 cm**-1
  33:       825.70 cm**-1
  34:       891.02 cm**-1
  35:       959.73 cm**-1
  36:       975.53 cm**-1
  37:       995.91 cm**-1
  38:      1016.25 cm**-1
  39:      1060.16 cm**-1
  40:      1083.13 cm**-1
  41:      1114.51 cm**-1
  42:      1127.08 cm**-1
  43:      1162.97 cm**-1
  44:      1178.16 cm**-1
  45:      1226.74 cm**-1
  46:      1275.38 cm**-1
  47:      1283.46 cm**-1
  48:      1330.74 cm**-1
  49:      1358.97 cm**-1
  50:      1382.60 cm**-1
  51:      1388.91 cm**-1
  52:      1405.55 cm**-1
  53:      1439.17 cm**-1
  54:      1449.76 cm**-1
  55:      1468.21 cm**-1
  56:      1474.11 cm**-1
  57:      1484.07 cm**-1
  58:      1486.38 cm**-1
  59:      1494.78 cm**-1
  60:      1499.90 cm**-1
  61:      1502.15 cm**-1
  62:      1512.99 cm**-1
  63:      1518.51 cm**-1
  64:      1544.86 cm**-1
  65:      1617.68 cm**-1
  66:      1653.16 cm**-1
  67:      1679.09 cm**-1
  68:      3031.04 cm**-1
  69:      3035.58 cm**-1
  70:      3057.57 cm**-1
  71:      3081.67 cm**-1
  72:      3089.93 cm**-1
  73:      3101.64 cm**-1
  74:      3105.25 cm**-1
  75:      3120.66 cm**-1
  76:      3137.40 cm**-1
  77:      3140.80 cm**-1
  78:      3160.74 cm**-1
  79:      3180.44 cm**-1
  80:      3183.76 cm**-1

IR SPECTRUM
-----------

 Mode   freq       eps      Int      T**2         TX        TY        TZ
       cm**-1   L/(mol*cm) km/mol    a.u.
----------------------------------------------------------------------------
  6:     26.62   0.000204    1.03  0.002395  (-0.048571  0.005989  0.000060)
  7:     41.65   0.001899    9.60  0.014229  ( 0.080263 -0.017190  0.086552)
  8:     49.88   0.005575   28.17  0.034881  (-0.087241 -0.163194  0.025253)
  9:     58.91   0.000835    4.22  0.004424  ( 0.039655 -0.017858  0.050329)
 10:     59.13   0.001589    8.03  0.008388  (-0.067953 -0.060012  0.012982)
 11:     72.45   0.000714    3.61  0.003074  ( 0.054630  0.009415 -0.000954)
 12:     73.60   0.000501    2.53  0.002125  ( 0.024544 -0.034575  0.018099)
 13:    103.90   0.003088   15.60  0.009274  ( 0.032383 -0.026713 -0.086672)
 14:    128.36   0.000440    2.22  0.001070  ( 0.025343 -0.007913  0.019107)
 15:    178.26   0.000074    0.38  0.000130  ( 0.001414 -0.006567  0.009219)
 16:    194.71   0.001586    8.01  0.002541  ( 0.032009 -0.036134  0.014532)
 17:    227.72   0.001781    9.00  0.002441  ( 0.027948 -0.008529  0.039843)
 18:    246.56   0.000452    2.28  0.000572  ( 0.002430 -0.022810 -0.006734)
 19:    316.90   0.002362   11.94  0.002326  ( 0.000162  0.044910 -0.017583)
 20:    360.79   0.001961    9.91  0.001696  ( 0.039834  0.010458  0.000634)
 21:    394.37   0.001685    8.52  0.001333  ( 0.036096  0.005231 -0.001776)
 22:    414.36   0.001211    6.12  0.000912  (-0.005982  0.029175  0.005011)
 23:    436.08   0.003232   16.34  0.002313  ( 0.028563  0.034301 -0.017909)
 24:    453.36   0.000789    3.99  0.000543  (-0.019800  0.009603  0.007662)
 25:    522.00   0.006568   33.19  0.003926  (-0.040451 -0.045483 -0.014880)
 26:    561.01   0.002554   12.91  0.001421  ( 0.030905 -0.005973  0.020737)
 27:    585.43   0.000767    3.87  0.000409  (-0.012694  0.000612 -0.015721)
 28:    595.25   0.000596    3.01  0.000313  ( 0.003735 -0.015406 -0.007836)
 29:    619.37   0.003991   20.17  0.002011  (-0.040212  0.011991  0.015806)
 30:    645.05   0.006723   33.98  0.003253  ( 0.039312 -0.040733 -0.006931)
 31:    702.97   0.006997   35.36  0.003106  (-0.029957  0.000404  0.046997)
 32:    810.28   0.002593   13.10  0.000999  (-0.001177  0.002503  0.031479)
 33:    825.70   0.004653   23.52  0.001759  ( 0.019847 -0.030570 -0.020742)
 34:    891.02   0.006208   31.37  0.002174  ( 0.038189 -0.025315  0.008658)
 35:    959.73   0.000127    0.64  0.000041  ( 0.000876 -0.006185  0.001517)
 36:    975.53   0.002908   14.70  0.000930  ( 0.018920 -0.006374  0.023059)
 37:    995.91   0.011383   57.53  0.003567  (-0.025428 -0.053972 -0.002695)
 38:   1016.25   0.009856   49.81  0.003026  ( 0.018505 -0.042000  0.030332)
 39:   1060.16   0.002312   11.68  0.000681  (-0.019445  0.007304  0.015782)
 40:   1083.13   0.003112   15.73  0.000897  (-0.012069  0.014877  0.023015)
 41:   1114.51   0.001521    7.69  0.000426  ( 0.013134  0.015367  0.004154)
 42:   1127.08   0.000665    3.36  0.000184  ( 0.008587 -0.004451 -0.009519)
 43:   1162.97   0.040676  205.56  0.010915  (-0.081051 -0.057417 -0.032385)
 44:   1178.16   0.002534   12.81  0.000671  (-0.020711 -0.014692  0.005146)
 45:   1226.74   0.003684   18.62  0.000937  ( 0.027313  0.001981  0.013684)
 46:   1275.38   0.021149  106.88  0.005175  (-0.014768 -0.067323  0.020598)
 47:   1283.46   0.011665   58.95  0.002836  ( 0.049054 -0.020712 -0.001018)
 48:   1330.74   0.021264  107.46  0.004986  (-0.035378  0.053325 -0.029854)
 49:   1358.97   0.016932   85.57  0.003888  (-0.059048 -0.013054 -0.015205)
 50:   1382.60   0.013192   66.67  0.002978  (-0.025411 -0.047633 -0.007933)
 51:   1388.91   0.062315  314.91  0.014001  ( 0.093856 -0.063534 -0.033990)
 52:   1405.55   0.002198   11.11  0.000488  ( 0.015416  0.009807  0.012419)
 53:   1439.17   0.022305  112.72  0.004837  (-0.054444 -0.042619 -0.007481)
 54:   1449.76   0.005942   30.03  0.001279  (-0.024627 -0.005362  0.025373)
 55:   1468.21   0.019263   97.35  0.004094  (-0.020340  0.025785 -0.054916)
 56:   1474.11   0.007460   37.70  0.001579  (-0.015278 -0.036270 -0.005502)
 57:   1484.07   0.012632   63.84  0.002656  ( 0.006310 -0.047529 -0.018904)
 58:   1486.38   0.009673   48.89  0.002031  (-0.006844 -0.044068  0.006486)
 59:   1494.78   0.003803   19.22  0.000794  (-0.013132 -0.006353  0.024106)
 60:   1499.90   0.001861    9.41  0.000387  ( 0.005237  0.006550 -0.017802)
 61:   1502.15   0.004614   23.32  0.000959  (-0.030035  0.006102 -0.004375)
 62:   1512.99   0.006473   32.71  0.001335  (-0.020668 -0.024136 -0.018036)
 63:   1518.51   0.020186  102.01  0.004148  (-0.026665 -0.058330  0.005914)
 64:   1544.86   0.021408  108.19  0.004324  ( 0.058491  0.030054  0.000206)
 65:   1617.68   0.205336  1037.69  0.039611  ( 0.054992 -0.047363  0.185320)
 66:   1653.16   0.169516  856.66  0.031999  (-0.087306  0.081985 -0.132873)
 67:   1679.09   0.127276  643.20  0.023655  (-0.019613 -0.124007 -0.088837)
 68:   3031.04   0.008597   43.44  0.000885  ( 0.020806 -0.003034 -0.021048)
 69:   3035.58   0.021868  110.51  0.002248  (-0.016996 -0.044253 -0.000937)
 70:   3057.57   0.001087    5.49  0.000111  ( 0.006086  0.006425  0.005713)
 71:   3081.67   0.004958   25.05  0.000502  ( 0.008660  0.006389  0.019653)
 72:   3089.93   0.006974   35.24  0.000704  ( 0.003664  0.022502 -0.013586)
 73:   3101.64   0.008868   44.82  0.000892  (-0.021754  0.009878 -0.017930)
 74:   3105.25   0.006558   33.14  0.000659  ( 0.016392 -0.004221  0.019302)
 75:   3120.66   0.001701    8.60  0.000170  (-0.009390  0.001516  0.008924)
 76:   3137.40   0.001180    5.96  0.000117  ( 0.007452  0.004340  0.006557)
 77:   3140.80   0.002521   12.74  0.000250  (-0.008471 -0.011370 -0.007031)
 78:   3160.74   0.003244   16.39  0.000320  (-0.003333  0.015232 -0.008783)
 79:   3180.44   0.001048    5.30  0.000103  ( 0.002606 -0.007464 -0.006350)
 80:   3183.76   0.002649   13.39  0.000260  ( 0.012815  0.004540 -0.008648)

--------------------------
THERMOCHEMISTRY AT 298.15K
--------------------------

Temperature         ... 298.15 K
Pressure            ... 1.00 atm
Total Mass          ... 201.20 AMU

Throughout the following assumptions are being made:
  (1) The electronic state is orbitally nondegenerate
  (2) There are no thermally accessible electronically excited states
  (3) Hindered rotations indicated by low frequency modes are not
      treated as such but are treated as vibrations and this may
      cause some error
  (4) All equations used are the standard statistical mechanics
      equations for an ideal gas
  (5) All vibrations are strictly harmonic

freq.      26.62  E(vib)   ...       0.56
freq.      41.65  E(vib)   ...       0.53
freq.      49.88  E(vib)   ...       0.52
freq.      58.91  E(vib)   ...       0.51
freq.      59.13  E(vib)   ...       0.51
freq.      72.45  E(vib)   ...       0.49
freq.      73.60  E(vib)   ...       0.49
freq.     103.90  E(vib)   ...       0.46
freq.     128.36  E(vib)   ...       0.43
freq.     178.26  E(vib)   ...       0.37
freq.     194.71  E(vib)   ...       0.36
freq.     227.72  E(vib)   ...       0.33
freq.     246.56  E(vib)   ...       0.31
freq.     316.90  E(vib)   ...       0.25
freq.     360.79  E(vib)   ...       0.22
freq.     394.37  E(vib)   ...       0.20
freq.     414.36  E(vib)   ...       0.19
freq.     436.08  E(vib)   ...       0.17
freq.     453.36  E(vib)   ...       0.16
freq.     522.00  E(vib)   ...       0.13
freq.     561.01  E(vib)   ...       0.11
freq.     585.43  E(vib)   ...       0.11
freq.     595.25  E(vib)   ...       0.10
freq.     619.37  E(vib)   ...       0.09
freq.     645.05  E(vib)   ...       0.09
freq.     702.97  E(vib)   ...       0.07
freq.     810.28  E(vib)   ...       0.05
freq.     825.70  E(vib)   ...       0.04
freq.     891.02  E(vib)   ...       0.04
freq.     959.73  E(vib)   ...       0.03
freq.     975.53  E(vib)   ...       0.03
freq.     995.91  E(vib)   ...       0.02
freq.    1016.25  E(vib)   ...       0.02
freq.    1060.16  E(vib)   ...       0.02
freq.    1083.13  E(vib)   ...       0.02
freq.    1114.51  E(vib)   ...       0.01
freq.    1127.08  E(vib)   ...       0.01
freq.    1162.97  E(vib)   ...       0.01
freq.    1178.16  E(vib)   ...       0.01
freq.    1226.74  E(vib)   ...       0.01
freq.    1275.38  E(vib)   ...       0.01
freq.    1283.46  E(vib)   ...       0.01
freq.    1330.74  E(vib)   ...       0.01
freq.    1358.97  E(vib)   ...       0.01
freq.    1382.60  E(vib)   ...       0.01
freq.    1388.91  E(vib)   ...       0.00
freq.    1405.55  E(vib)   ...       0.00
freq.    1439.17  E(vib)   ...       0.00
freq.    1449.76  E(vib)   ...       0.00
freq.    1468.21  E(vib)   ...       0.00
freq.    1474.11  E(vib)   ...       0.00
freq.    1484.07  E(vib)   ...       0.00
freq.    1486.38  E(vib)   ...       0.00
freq.    1494.78  E(vib)   ...       0.00
freq.    1499.90  E(vib)   ...       0.00
freq.    1502.15  E(vib)   ...       0.00
freq.    1512.99  E(vib)   ...       0.00
freq.    1518.51  E(vib)   ...       0.00
freq.    1544.86  E(vib)   ...       0.00
freq.    1617.68  E(vib)   ...       0.00
freq.    1653.16  E(vib)   ...       0.00
freq.    1679.09  E(vib)   ...       0.00
freq.    3031.04  E(vib)   ...       0.00
freq.    3035.58  E(vib)   ...       0.00
freq.    3057.57  E(vib)   ...       0.00
freq.    3081.67  E(vib)   ...       0.00
freq.    3089.93  E(vib)   ...       0.00
freq.    3101.64  E(vib)   ...       0.00
freq.    3105.25  E(vib)   ...       0.00
freq.    3120.66  E(vib)   ...       0.00
freq.    3137.40  E(vib)   ...       0.00
freq.    3140.80  E(vib)   ...       0.00
freq.    3160.74  E(vib)   ...       0.00
freq.    3180.44  E(vib)   ...       0.00
freq.    3183.76  E(vib)   ...       0.00

------------
INNER ENERGY
------------

The inner energy is: U= E(el) + E(ZPE) + E(vib) + E(rot) + E(trans)
    E(el)   - is the total energy from the electronic structure calculation
              = E(kin-el) + E(nuc-el) + E(el-el) + E(nuc-nuc)
    E(ZPE)  - the the zero temperature vibrational energy from the frequency calculation
    E(vib)  - the the finite temperature correction to E(ZPE) due to population
              of excited vibrational states
    E(rot)  - is the rotational thermal energy
    E(trans)- is the translational thermal energy

Summary of contributions to the inner energy U:
Electronic energy                ...   -722.94491900 Eh
Zero point energy                ...      0.21681953 Eh     136.06 kcal/mol
Thermal vibrational correction   ...      0.01302855 Eh       8.18 kcal/mol
Thermal rotational correction    ...      0.00141627 Eh       0.89 kcal/mol
Thermal translational correction ...      0.00141627 Eh       0.89 kcal/mol
-----------------------------------------------------------------------
Total thermal energy                   -722.71223838 Eh

Summary of corrections to the electronic energy:
(perhaps to be used in another calculation)
Total thermal correction                  0.01586109 Eh       9.95 kcal/mol
Non-thermal (ZPE) correction              0.21681953 Eh     136.06 kcal/mol
-----------------------------------------------------------------------
Total correction                          0.23268062 Eh     146.01 kcal/mol

--------
ENTHALPY
--------

The enthalpy is H = U + kB*T
                kB is Boltzmann's constant
Total free energy                 ...   -722.71223838 Eh
Thermal Enthalpy correction       ...      0.00094421 Eh       0.59 kcal/mol
-----------------------------------------------------------------------
Total Enthalpy                    ...   -722.71129417 Eh

Note: Only C1 symmetry has been detected, increase convergence thresholds
      if your molecule has a higher symmetry. Symmetry factor of 1.0 is
      used for the rotational entropy correction.

Note: Rotational entropy computed according to Herzberg
Infrared and Raman Spectra, Chapter V,1, Van Nostrand Reinhold, 1945
Point Group:  C1, Symmetry Number:   1
Rotational constants in cm-1:     0.033598     0.013307     0.011402

Vibrational entropy computed according to the QRRHO of S. Grimme
Chem.Eur.J. 2012 18 9955

-------
ENTROPY
-------

The entropy contributions are T*S = T*(S(el)+S(vib)+S(rot)+S(trans))
     S(el)   - electronic entropy
     S(vib)  - vibrational entropy
     S(rot)  - rotational entropy
     S(trans)- translational entropy
The entropies will be listed as multiplied by the temperature to get
units of energy

                             ****ORCA TERMINATED NORMALLY****
TOTAL RUN TIME: 0 days 0 hours 54 minutes 16 seconds 232 msec
