                         Program Version 5.0.4 -  RELEASE  -
|  1> ! OPT FREQ B3LYP 6-31G(d) D4 AUTOAUX CPCM(water)
|  2>
|  3> %PAL NPROCS 4 END
|  4>
|  5> %maxcore 3375
|  6>
|  7> *xyzfile 0 1 /users/fjb15167/WWenergy/structures/Nv.xyz
|  8>
|  9>                          ****END OF INPUT****
 Total Charge           Charge          ....    0
 Multiplicity           Mult            ....    1
 Number of Electrons    NEL             ....  102
Dispersion correction           -0.052466143
FINAL SINGLE POINT ENERGY      -613.449371785212
Dispersion correction            ... Starting D4
Dispersion correction           -0.052208185
FINAL SINGLE POINT ENERGY      -613.449851963444
Dispersion correction            ... Starting D4
Dispersion correction           -0.052464027
FINAL SINGLE POINT ENERGY      -613.449957534903
Dispersion correction            ... Starting D4
FINAL SINGLE POINT ENERGY      -613.450035231546
FINAL SINGLE POINT ENERGY      -613.450059274258
FINAL SINGLE POINT ENERGY      -613.450080078407
FINAL SINGLE POINT ENERGY      -613.450090550619
Dispersion correction           -0.052557678
FINAL SINGLE POINT ENERGY      -613.450096138586
Dispersion correction            ... Starting D4
Dispersion correction           -0.052566463
FINAL SINGLE POINT ENERGY      -613.450099030894
Dispersion correction            ... Starting D4
                    ***********************HURRAY********************

CARTESIAN COORDINATES (ANGSTROEM)
---------------------------------
  C     -2.754299    1.172735    0.711017
  H     -2.628675    0.506831    1.564756
  H     -3.649762    0.860088    0.162335
  H     -2.914474    2.192210    1.068156
  C     -1.564974    1.207275   -0.230079
  O     -1.267225    2.278552   -0.781149
  N     -0.849294    0.065414   -0.463384
  C      0.257681    0.137731   -1.420196
  H      0.048606   -0.513270   -2.274580
  H      0.329337    1.165792   -1.774216
  C      1.583903   -0.365420   -0.834620
  N      2.163949    0.353115    0.162985
  O      2.073475   -1.415741   -1.273536
  C      1.631279    1.584774    0.733255
  H      1.172311    1.392871    1.712431
  H      2.456058    2.292526    0.873384
  H      0.889553    2.044027    0.082634
  C      3.351442   -0.171813    0.828301
  H      3.121491   -0.422708    1.872103
  H      3.684872   -1.065501    0.303888
  H      4.147269    0.581890    0.819576
  C     -1.114611   -1.297492    0.075479
  C     -2.532924   -1.813890   -0.199151
  C     -0.688583   -1.448417    1.542253
  H     -0.443422   -1.932059   -0.509853
  H     -2.823763   -1.616286   -1.236719
  H     -2.548163   -2.897986   -0.040639
  H     -3.281858   -1.374363    0.463872
  H      0.349283   -1.129948    1.680562
  H     -1.318895   -0.867227    2.221936
  H     -0.765588   -2.501710    1.835198

 Multiplicity           Mult            ....    1
 Number of Electrons    NEL             ....  102
 Basis Dimension        Dim             ....  218

ORBITAL ENERGIES
----------------

  NO   OCC          E(Eh)            E(eV)
   0   2.0000     -19.106659      -519.9186
   1   2.0000     -19.106518      -519.9148
   2   2.0000     -14.358806      -390.7230
   3   2.0000     -14.357994      -390.7009
   4   2.0000     -10.282205      -279.7930
   5   2.0000     -10.279151      -279.7099
   6   2.0000     -10.219838      -278.0959
   7   2.0000     -10.208755      -277.7943
   8   2.0000     -10.198098      -277.5044
   9   2.0000     -10.195273      -277.4275
  10   2.0000     -10.170909      -276.7645
  11   2.0000     -10.163403      -276.5603
  12   2.0000     -10.163258      -276.5563
  13   2.0000      -1.030532       -28.0422
  14   2.0000      -1.023916       -27.8622
  15   2.0000      -0.931259       -25.3408
  16   2.0000      -0.924011       -25.1436
  17   2.0000      -0.779239       -21.2042
  18   2.0000      -0.750543       -20.4233
  19   2.0000      -0.717314       -19.5191
  20   2.0000      -0.705149       -19.1881
  21   2.0000      -0.684474       -18.6255
  22   2.0000      -0.669915       -18.2293
  23   2.0000      -0.620951       -16.8969
  24   2.0000      -0.543525       -14.7901
  25   2.0000      -0.524491       -14.2721
  26   2.0000      -0.500053       -13.6071
  27   2.0000      -0.489046       -13.3076
  28   2.0000      -0.477535       -12.9944
  29   2.0000      -0.461371       -12.5545
  30   2.0000      -0.455021       -12.3818
  31   2.0000      -0.447029       -12.1643
  32   2.0000      -0.429310       -11.6821
  33   2.0000      -0.418856       -11.3976
  34   2.0000      -0.409723       -11.1491
  35   2.0000      -0.406405       -11.0588
  36   2.0000      -0.396138       -10.7794
  37   2.0000      -0.393113       -10.6972
  38   2.0000      -0.392015       -10.6673
  39   2.0000      -0.388235       -10.5644
  40   2.0000      -0.379274       -10.3206
  41   2.0000      -0.372665       -10.1407
  42   2.0000      -0.370329       -10.0772
  43   2.0000      -0.349896        -9.5212
  44   2.0000      -0.347401        -9.4533
  45   2.0000      -0.339861        -9.2481
  46   2.0000      -0.331147        -9.0110
  47   2.0000      -0.257296        -7.0014
  48   2.0000      -0.250042        -6.8040
  49   2.0000      -0.236866        -6.4454
  50   2.0000      -0.234287        -6.3753
  51   0.0000       0.016074         0.4374
  52   0.0000       0.030160         0.8207
  53   0.0000       0.083197         2.2639
  54   0.0000       0.107063         2.9133
  55   0.0000       0.117208         3.1894

MULLIKEN ATOMIC CHARGES
-----------------------
   0 C :   -0.558049
   1 H :    0.187166
   2 H :    0.199620
   3 H :    0.180148
   4 C :    0.535106
   5 O :   -0.545713
   6 N :   -0.377540
   7 C :   -0.259629
   8 H :    0.181299
   9 H :    0.206548
  10 C :    0.523143
  11 N :   -0.358169
  12 O :   -0.545694
  13 C :   -0.345911
  14 H :    0.171589
  15 H :    0.173581
  16 H :    0.193571
  17 C :   -0.332109
  18 H :    0.172843
  19 H :    0.184590
  20 H :    0.172964
  21 C :    0.022813
  22 C :   -0.468260
  23 C :   -0.469579
  24 H :    0.169779
  25 H :    0.161604
  26 H :    0.163243
  27 H :    0.165089
  28 H :    0.168330
  29 H :    0.166521
  30 H :    0.161106
Sum of atomic charges:   -0.0000000

LOEWDIN ATOMIC CHARGES
----------------------
   0 C :   -0.391818
   1 H :    0.146705
   2 H :    0.160584
   3 H :    0.150601
   4 C :    0.117100
   5 O :   -0.347202
   6 N :   -0.068765
   7 C :   -0.181396
   8 H :    0.144606
   9 H :    0.160698
  10 C :    0.094560
  11 N :   -0.067602
  12 O :   -0.343174
  13 C :   -0.285004
  14 H :    0.132355
  15 H :    0.137404
  16 H :    0.148360
  17 C :   -0.279974
  18 H :    0.133720
  19 H :    0.147203
  20 H :    0.135936
  21 C :   -0.057761
  22 C :   -0.369806
  23 C :   -0.370990
  24 H :    0.143377
  25 H :    0.134751
  26 H :    0.138167
  27 H :    0.133357
  28 H :    0.135514
  29 H :    0.131613
  30 H :    0.136881

  Mayer bond orders larger than 0.100000
B(  0-C ,  1-H ) :   0.9137 B(  0-C ,  2-H ) :   0.9205 B(  0-C ,  3-H ) :   0.9364
B(  0-C ,  4-C ) :   0.9944 B(  4-C ,  5-O ) :   1.7157 B(  4-C ,  6-N ) :   1.1770
B(  6-N ,  7-C ) :   0.9497 B(  6-N , 21-C ) :   0.9006 B(  7-C ,  8-H ) :   0.9163
B(  7-C ,  9-H ) :   0.8892 B(  7-C , 10-C ) :   0.9380 B( 10-C , 11-N ) :   1.2003
B( 10-C , 12-O ) :   1.7452 B( 11-N , 12-O ) :   0.1013 B( 11-N , 13-C ) :   0.9508
B( 11-N , 17-C ) :   0.9471 B( 13-C , 14-H ) :   0.9298 B( 13-C , 15-H ) :   0.9340
B( 13-C , 16-H ) :   0.9038 B( 17-C , 18-H ) :   0.9348 B( 17-C , 19-H ) :   0.9250
B( 17-C , 20-H ) :   0.9368 B( 21-C , 22-C ) :   1.0119 B( 21-C , 23-C ) :   1.0040
B( 21-C , 24-H ) :   0.9167 B( 22-C , 25-H ) :   0.9445 B( 22-C , 26-H ) :   0.9406
B( 22-C , 27-H ) :   0.9376 B( 23-C , 28-H ) :   0.9375 B( 23-C , 29-H ) :   0.9333
B( 23-C , 30-H ) :   0.9402

Dispersion correction           -0.052566077
FINAL SINGLE POINT ENERGY      -613.450100971978

DIPOLE MOMENT
-------------
                                X             Y             Z
Electronic contribution:      3.78415       3.14305      -7.79657
Nuclear contribution   :     -4.36302      -3.46750       9.49203
                        -----------------------------------------
Total Dipole Moment    :     -0.57887      -0.32445       1.69546
                        -----------------------------------------
Magnitude (a.u.)       :      1.82070
Magnitude (Debye)      :      4.62785

Dispersion correction in the Hessian             ... Starting D4

VIBRATIONAL FREQUENCIES
-----------------------

Scaling factor for frequencies =  1.000000000  (already applied!)

   0:         0.00 cm**-1
   1:         0.00 cm**-1
   2:         0.00 cm**-1
   3:         0.00 cm**-1
   4:         0.00 cm**-1
   5:         0.00 cm**-1
   6:        47.19 cm**-1
   7:        62.11 cm**-1
   8:        76.54 cm**-1
   9:        81.46 cm**-1
  10:        95.61 cm**-1
  11:       112.31 cm**-1
  12:       145.27 cm**-1
  13:       168.05 cm**-1
  14:       178.52 cm**-1
  15:       215.10 cm**-1
  16:       227.68 cm**-1
  17:       236.52 cm**-1
  18:       259.07 cm**-1
  19:       274.36 cm**-1
  20:       311.97 cm**-1
  21:       330.80 cm**-1
  22:       359.16 cm**-1
  23:       393.24 cm**-1
  24:       427.57 cm**-1
  25:       450.21 cm**-1
  26:       482.19 cm**-1
  27:       536.39 cm**-1
  28:       578.70 cm**-1
  29:       611.29 cm**-1
  30:       620.75 cm**-1
  31:       680.09 cm**-1
  32:       745.74 cm**-1
  33:       784.39 cm**-1
  34:       890.23 cm**-1
  35:       945.00 cm**-1
  36:       958.62 cm**-1
  37:       963.96 cm**-1
  38:      1001.96 cm**-1
  39:      1013.43 cm**-1
  40:      1063.02 cm**-1
  41:      1070.08 cm**-1
  42:      1090.24 cm**-1
  43:      1135.86 cm**-1
  44:      1151.48 cm**-1
  45:      1158.54 cm**-1
  46:      1161.42 cm**-1
  47:      1183.65 cm**-1
  48:      1200.65 cm**-1
  49:      1234.72 cm**-1
  50:      1276.51 cm**-1
  51:      1286.64 cm**-1
  52:      1368.39 cm**-1
  53:      1373.86 cm**-1
  54:      1378.93 cm**-1
  55:      1415.47 cm**-1
  56:      1425.24 cm**-1
  57:      1439.65 cm**-1
  58:      1441.21 cm**-1
  59:      1457.44 cm**-1
  60:      1483.03 cm**-1
  61:      1489.00 cm**-1
  62:      1497.16 cm**-1
  63:      1501.51 cm**-1
  64:      1505.87 cm**-1
  65:      1508.75 cm**-1
  66:      1510.76 cm**-1
  67:      1516.45 cm**-1
  68:      1520.31 cm**-1
  69:      1522.88 cm**-1
  70:      1530.45 cm**-1
  71:      1540.89 cm**-1
  72:      1555.49 cm**-1
  73:      1686.52 cm**-1
  74:      1706.55 cm**-1
  75:      3037.59 cm**-1
  76:      3043.68 cm**-1
  77:      3058.02 cm**-1
  78:      3062.47 cm**-1
  79:      3076.51 cm**-1
  80:      3085.97 cm**-1
  81:      3092.27 cm**-1
  82:      3095.50 cm**-1
  83:      3098.35 cm**-1
  84:      3122.39 cm**-1
  85:      3127.76 cm**-1
  86:      3139.41 cm**-1
  87:      3147.82 cm**-1
  88:      3152.20 cm**-1
  89:      3168.34 cm**-1
  90:      3186.72 cm**-1
  91:      3194.93 cm**-1
  92:      3196.51 cm**-1

IR SPECTRUM
-----------

 Mode   freq       eps      Int      T**2         TX        TY        TZ
       cm**-1   L/(mol*cm) km/mol    a.u.
----------------------------------------------------------------------------
  6:     47.19   0.001550    7.83  0.010249  (-0.024517 -0.041120  0.089203)
  7:     62.11   0.000222    1.12  0.001113  (-0.011979 -0.002673  0.031030)
  8:     76.54   0.000014    0.07  0.000057  (-0.003553  0.006057 -0.002721)
  9:     81.46   0.000948    4.79  0.003633  (-0.053770  0.000511  0.027231)
 10:     95.61   0.000482    2.44  0.001574  ( 0.033855  0.009821  0.018196)
 11:    112.31   0.002927   14.79  0.008134  (-0.077782 -0.015923 -0.042778)
 12:    145.27   0.000672    3.40  0.001444  (-0.033416 -0.014416  0.010933)
 13:    168.05   0.000016    0.08  0.000030  (-0.000173  0.004884 -0.002500)
 14:    178.52   0.000057    0.29  0.000099  (-0.005602  0.000862 -0.008179)
 15:    215.10   0.000267    1.35  0.000387  (-0.010052 -0.009044  0.014276)
 16:    227.68   0.000557    2.82  0.000764  (-0.003699  0.007467 -0.026347)
 17:    236.52   0.001052    5.32  0.001388  ( 0.035172 -0.010102 -0.007022)
 18:    259.07   0.001511    7.63  0.001820  (-0.035372 -0.018417  0.015146)
 19:    274.36   0.000596    3.01  0.000678  ( 0.022254  0.013511  0.000321)
 20:    311.97   0.000630    3.18  0.000630  ( 0.004599  0.012952 -0.021002)
 21:    330.80   0.000682    3.45  0.000644  (-0.024074  0.005260 -0.006035)
 22:    359.16   0.003411   17.24  0.002964  (-0.020901 -0.040358 -0.029974)
 23:    393.24   0.001821    9.20  0.001445  (-0.010575  0.017956 -0.031797)
 24:    427.57   0.001379    6.97  0.001006  ( 0.029119  0.011092  0.005952)
 25:    450.21   0.002375   12.00  0.001646  (-0.028038  0.018096 -0.023084)
 26:    482.19   0.000709    3.58  0.000459  (-0.013965  0.012120  0.010800)
 27:    536.39   0.005037   25.46  0.002931  ( 0.039949 -0.015767 -0.032957)
 28:    578.70   0.003551   17.94  0.001915  (-0.025619  0.023792 -0.026313)
 29:    611.29   0.001809    9.14  0.000923  ( 0.001101  0.009765 -0.028753)
 30:    620.75   0.004646   23.48  0.002336  (-0.033870 -0.027117 -0.021285)
 31:    680.09   0.002959   14.95  0.001358  ( 0.004730 -0.024789 -0.026847)
 32:    745.74   0.000595    3.00  0.000249  (-0.012803  0.005658 -0.007272)
 33:    784.39   0.006117   30.91  0.002434  (-0.031636 -0.031722 -0.020654)
 34:    890.23   0.001219    6.16  0.000427  ( 0.000100 -0.015740 -0.013404)
 35:    945.00   0.000616    3.11  0.000203  ( 0.010067  0.008634  0.005252)
 36:    958.62   0.000499    2.52  0.000162  (-0.006255  0.010974 -0.001707)
 37:    963.96   0.000219    1.11  0.000071  (-0.003819 -0.004302 -0.006147)
 38:   1001.96   0.008167   41.27  0.002544  (-0.030457 -0.011586 -0.038493)
 39:   1013.43   0.006048   30.57  0.001862  (-0.008022  0.041071 -0.010548)
 40:   1063.02   0.003683   18.61  0.001081  (-0.020073 -0.001705 -0.025989)
 41:   1070.08   0.002571   12.99  0.000750  ( 0.012081 -0.007435 -0.023422)
 42:   1090.24   0.002013   10.17  0.000576  (-0.013664  0.019097 -0.004986)
 43:   1135.86   0.000196    0.99  0.000054  (-0.006053  0.001995  0.003624)
 44:   1151.48   0.006487   32.78  0.001758  ( 0.034763  0.019005  0.013731)
 45:   1158.54   0.004976   25.15  0.001340  ( 0.008113 -0.034395  0.009566)
 46:   1161.42   0.014736   74.47  0.003960  (-0.019909 -0.053071 -0.027326)
 47:   1183.65   0.001895    9.57  0.000499  (-0.007861 -0.016235 -0.013195)
 48:   1200.65   0.011298   57.09  0.002936  (-0.009162 -0.030632 -0.043751)
 49:   1234.72   0.008176   41.32  0.002066  (-0.002941 -0.034866  0.029020)
 50:   1276.51   0.032781  165.66  0.008014  (-0.066095  0.043360  0.042015)
 51:   1286.64   0.022125  111.81  0.005366  ( 0.064433 -0.027527  0.021376)
 52:   1368.39   0.001423    7.19  0.000325  (-0.004891 -0.017206 -0.002140)
 53:   1373.86   0.024256  122.58  0.005510  (-0.032600  0.064663 -0.016294)
 54:   1378.93   0.007048   35.62  0.001595  (-0.017263  0.036010  0.000624)
 55:   1415.47   0.009074   45.86  0.002001  (-0.037702  0.023621  0.004597)
 56:   1425.24   0.002828   14.29  0.000619  (-0.001069  0.016592  0.018513)
 57:   1439.65   0.010267   51.88  0.002225  ( 0.013451  0.021578  0.039735)
 58:   1441.21   0.006258   31.62  0.001355  (-0.009339 -0.033615 -0.011737)
 59:   1457.44   0.017258   87.21  0.003695  ( 0.044007  0.019251  0.037257)
 60:   1483.03   0.013797   69.72  0.002903  ( 0.020232 -0.048973  0.009766)
 61:   1489.00   0.003387   17.12  0.000710  ( 0.022618 -0.013908  0.002197)
 62:   1497.16   0.002353   11.89  0.000490  ( 0.021810  0.003652 -0.001162)
 63:   1501.51   0.000430    2.17  0.000089  ( 0.002046 -0.007195 -0.005772)
 64:   1505.87   0.000373    1.89  0.000077  (-0.001052  0.008541 -0.001816)
 65:   1508.75   0.000750    3.79  0.000155  (-0.008526  0.007756 -0.004716)
 66:   1510.76   0.006282   31.75  0.001298  (-0.029152  0.004725  0.020625)
 67:   1516.45   0.005178   26.17  0.001066  (-0.027075  0.015317  0.009895)
 68:   1520.31   0.003028   15.30  0.000621  ( 0.017805  0.013960 -0.010467)
 69:   1522.88   0.006546   33.08  0.001341  (-0.006074  0.028305  0.022434)
 70:   1530.45   0.006573   33.22  0.001340  ( 0.006620  0.028994 -0.021348)
 71:   1540.89   0.012238   61.84  0.002478  ( 0.035051 -0.025996 -0.023959)
 72:   1555.49   0.016682   84.30  0.003347  ( 0.039607  0.006082  0.041726)
 73:   1686.52   0.124272  628.02  0.022994  (-0.005429 -0.149117  0.027000)
 74:   1706.55   0.108095  546.27  0.019766  ( 0.015008 -0.105292 -0.091950)
 75:   3037.59   0.006489   32.79  0.000667  (-0.012445  0.019143  0.012055)
 76:   3043.68   0.018830   95.16  0.001931  (-0.018670 -0.009794 -0.038551)
 77:   3058.02   0.006252   31.59  0.000638  (-0.016055 -0.005084 -0.018824)
 78:   3062.47   0.003478   17.57  0.000354  (-0.007210 -0.012795  0.011777)
 79:   3076.51   0.001046    5.28  0.000106  (-0.009534 -0.002106  0.003277)
 80:   3085.97   0.004463   22.56  0.000451  (-0.004690  0.008649  0.018830)
 81:   3092.27   0.003422   17.29  0.000345  (-0.001796  0.011430  0.014541)
 82:   3095.50   0.017691   89.40  0.001783  (-0.030821 -0.024900  0.014614)
 83:   3098.35   0.000371    1.87  0.000037  ( 0.002344  0.001861 -0.005329)
 84:   3122.39   0.004684   23.67  0.000468  ( 0.005905 -0.011551  0.017317)
 85:   3127.76   0.011459   57.91  0.001143  (-0.001863 -0.033756  0.000589)
 86:   3139.41   0.006607   33.39  0.000657  ( 0.025349 -0.002722 -0.002613)
 87:   3147.82   0.008901   44.98  0.000882  ( 0.012002 -0.018298 -0.020089)
 88:   3152.20   0.004512   22.80  0.000447  (-0.013881  0.009162  0.013038)
 89:   3168.34   0.002163   10.93  0.000213  (-0.014244  0.000919 -0.003057)
 90:   3186.72   0.002805   14.17  0.000275  (-0.003028 -0.011702  0.011337)
 91:   3194.93   0.001035    5.23  0.000101  ( 0.009358 -0.001743 -0.003241)
 92:   3196.51   0.000569    2.87  0.000056  ( 0.000669 -0.007338  0.001106)

--------------------------
THERMOCHEMISTRY AT 298.15K
--------------------------

Temperature         ... 298.15 K
Pressure            ... 1.00 atm
Total Mass          ... 186.26 AMU

Throughout the following assumptions are being made:
  (1) The electronic state is orbitally nondegenerate
  (2) There are no thermally accessible electronically excited states
  (3) Hindered rotations indicated by low frequency modes are not
      treated as such but are treated as vibrations and this may
      cause some error
  (4) All equations used are the standard statistical mechanics
      equations for an ideal gas
  (5) All vibrations are strictly harmonic

freq.      47.19  E(vib)   ...       0.53
freq.      62.11  E(vib)   ...       0.51
freq.      76.54  E(vib)   ...       0.49
freq.      81.46  E(vib)   ...       0.48
freq.      95.61  E(vib)   ...       0.47
freq.     112.31  E(vib)   ...       0.45
freq.     145.27  E(vib)   ...       0.41
freq.     168.05  E(vib)   ...       0.38
freq.     178.52  E(vib)   ...       0.37
freq.     215.10  E(vib)   ...       0.34
freq.     227.68  E(vib)   ...       0.33
freq.     236.52  E(vib)   ...       0.32
freq.     259.07  E(vib)   ...       0.30
freq.     274.36  E(vib)   ...       0.28
freq.     311.97  E(vib)   ...       0.25
freq.     330.80  E(vib)   ...       0.24
freq.     359.16  E(vib)   ...       0.22
freq.     393.24  E(vib)   ...       0.20
freq.     427.57  E(vib)   ...       0.18
freq.     450.21  E(vib)   ...       0.17
freq.     482.19  E(vib)   ...       0.15
freq.     536.39  E(vib)   ...       0.12
freq.     578.70  E(vib)   ...       0.11
freq.     611.29  E(vib)   ...       0.10
freq.     620.75  E(vib)   ...       0.09
freq.     680.09  E(vib)   ...       0.08
freq.     745.74  E(vib)   ...       0.06
freq.     784.39  E(vib)   ...       0.05
freq.     890.23  E(vib)   ...       0.04
freq.     945.00  E(vib)   ...       0.03
freq.     958.62  E(vib)   ...       0.03
freq.     963.96  E(vib)   ...       0.03
freq.    1001.96  E(vib)   ...       0.02
freq.    1013.43  E(vib)   ...       0.02
freq.    1063.02  E(vib)   ...       0.02
freq.    1070.08  E(vib)   ...       0.02
freq.    1090.24  E(vib)   ...       0.02
freq.    1135.86  E(vib)   ...       0.01
freq.    1151.48  E(vib)   ...       0.01
freq.    1158.54  E(vib)   ...       0.01
freq.    1161.42  E(vib)   ...       0.01
freq.    1183.65  E(vib)   ...       0.01
freq.    1200.65  E(vib)   ...       0.01
freq.    1234.72  E(vib)   ...       0.01
freq.    1276.51  E(vib)   ...       0.01
freq.    1286.64  E(vib)   ...       0.01
freq.    1368.39  E(vib)   ...       0.01
freq.    1373.86  E(vib)   ...       0.01
freq.    1378.93  E(vib)   ...       0.01
freq.    1415.47  E(vib)   ...       0.00
freq.    1425.24  E(vib)   ...       0.00
freq.    1439.65  E(vib)   ...       0.00
freq.    1441.21  E(vib)   ...       0.00
freq.    1457.44  E(vib)   ...       0.00
freq.    1483.03  E(vib)   ...       0.00
freq.    1489.00  E(vib)   ...       0.00
freq.    1497.16  E(vib)   ...       0.00
freq.    1501.51  E(vib)   ...       0.00
freq.    1505.87  E(vib)   ...       0.00
freq.    1508.75  E(vib)   ...       0.00
freq.    1510.76  E(vib)   ...       0.00
freq.    1516.45  E(vib)   ...       0.00
freq.    1520.31  E(vib)   ...       0.00
freq.    1522.88  E(vib)   ...       0.00
freq.    1530.45  E(vib)   ...       0.00
freq.    1540.89  E(vib)   ...       0.00
freq.    1555.49  E(vib)   ...       0.00
freq.    1686.52  E(vib)   ...       0.00
freq.    1706.55  E(vib)   ...       0.00
freq.    3037.59  E(vib)   ...       0.00
freq.    3043.68  E(vib)   ...       0.00
freq.    3058.02  E(vib)   ...       0.00
freq.    3062.47  E(vib)   ...       0.00
freq.    3076.51  E(vib)   ...       0.00
freq.    3085.97  E(vib)   ...       0.00
freq.    3092.27  E(vib)   ...       0.00
freq.    3095.50  E(vib)   ...       0.00
freq.    3098.35  E(vib)   ...       0.00
freq.    3122.39  E(vib)   ...       0.00
freq.    3127.76  E(vib)   ...       0.00
freq.    3139.41  E(vib)   ...       0.00
freq.    3147.82  E(vib)   ...       0.00
freq.    3152.20  E(vib)   ...       0.00
freq.    3168.34  E(vib)   ...       0.00
freq.    3186.72  E(vib)   ...       0.00
freq.    3194.93  E(vib)   ...       0.00
freq.    3196.51  E(vib)   ...       0.00

------------
INNER ENERGY
------------

The inner energy is: U= E(el) + E(ZPE) + E(vib) + E(rot) + E(trans)
    E(el)   - is the total energy from the electronic structure calculation
              = E(kin-el) + E(nuc-el) + E(el-el) + E(nuc-nuc)
    E(ZPE)  - the the zero temperature vibrational energy from the frequency calculation
    E(vib)  - the the finite temperature correction to E(ZPE) due to population
              of excited vibrational states
    E(rot)  - is the rotational thermal energy
    E(trans)- is the translational thermal energy

Summary of contributions to the inner energy U:
Electronic energy                ...   -613.45010097 Eh
Zero point energy                ...      0.27278908 Eh     171.18 kcal/mol
Thermal vibrational correction   ...      0.01283597 Eh       8.05 kcal/mol
Thermal rotational correction    ...      0.00141627 Eh       0.89 kcal/mol
Thermal translational correction ...      0.00141627 Eh       0.89 kcal/mol
-----------------------------------------------------------------------
Total thermal energy                   -613.16164338 Eh

Summary of corrections to the electronic energy:
(perhaps to be used in another calculation)
Total thermal correction                  0.01566851 Eh       9.83 kcal/mol
Non-thermal (ZPE) correction              0.27278908 Eh     171.18 kcal/mol
-----------------------------------------------------------------------
Total correction                          0.28845759 Eh     181.01 kcal/mol

--------
ENTHALPY
--------

The enthalpy is H = U + kB*T
                kB is Boltzmann's constant
Total free energy                 ...   -613.16164338 Eh
Thermal Enthalpy correction       ...      0.00094421 Eh       0.59 kcal/mol
-----------------------------------------------------------------------
Total Enthalpy                    ...   -613.16069917 Eh

Note: Only C1 symmetry has been detected, increase convergence thresholds
      if your molecule has a higher symmetry. Symmetry factor of 1.0 is
      used for the rotational entropy correction.

Note: Rotational entropy computed according to Herzberg
Infrared and Raman Spectra, Chapter V,1, Van Nostrand Reinhold, 1945
Point Group:  C1, Symmetry Number:   1
Rotational constants in cm-1:     0.036152     0.019864     0.016750

Vibrational entropy computed according to the QRRHO of S. Grimme
Chem.Eur.J. 2012 18 9955

                             ****ORCA TERMINATED NORMALLY****
TOTAL RUN TIME: 0 days 0 hours 20 minutes 30 seconds 417 msec
