                         Program Version 5.0.4 -  RELEASE  -
|  1> ! OPT FREQ B3LYP 6-31G(d) D4 AUTOAUX
|  2>
|  3> %PAL NPROCS 4 END
|  4>
|  5> %maxcore 3375
|  6>
|  7> *xyzfile 0 1 /users/fjb15167/WWenergy/structures/Nq.xyz
|  8>
|  9>                          ****END OF INPUT****
 Total Charge           Charge          ....    0
 Multiplicity           Mult            ....    1
 Number of Electrons    NEL             ....  116
Dispersion correction           -0.054463020
FINAL SINGLE POINT ENERGY      -742.768966384163
Dispersion correction            ... Starting D4
Dispersion correction           -0.053857877
FINAL SINGLE POINT ENERGY      -742.769744602977
Dispersion correction            ... Starting D4
Dispersion correction           -0.053932589
FINAL SINGLE POINT ENERGY      -742.769876766690
Dispersion correction            ... Starting D4
FINAL SINGLE POINT ENERGY      -742.769913048416
FINAL SINGLE POINT ENERGY      -742.769949479683
FINAL SINGLE POINT ENERGY      -742.769961976127
FINAL SINGLE POINT ENERGY      -742.769974286714
FINAL SINGLE POINT ENERGY      -742.769993082843
FINAL SINGLE POINT ENERGY      -742.770004801641
FINAL SINGLE POINT ENERGY      -742.770024746891
FINAL SINGLE POINT ENERGY      -742.770046755708
FINAL SINGLE POINT ENERGY      -742.770058664374
FINAL SINGLE POINT ENERGY      -742.770068072559
FINAL SINGLE POINT ENERGY      -742.770073291813
FINAL SINGLE POINT ENERGY      -742.770074106332
Dispersion correction           -0.053621803
FINAL SINGLE POINT ENERGY      -742.770076789609
Dispersion correction            ... Starting D4
Dispersion correction           -0.053610110
FINAL SINGLE POINT ENERGY      -742.770074482411
Dispersion correction            ... Starting D4
                    ***********************HURRAY********************

CARTESIAN COORDINATES (ANGSTROEM)
---------------------------------
  C     -1.288451    2.624897   -0.044424
  H     -1.942907    1.823764    0.311871
  H     -1.696848    2.966842   -1.003901
  H     -1.306840    3.461212    0.655873
  C      0.164028    2.206729   -0.214249
  O      1.080435    2.922549    0.191460
  N      0.405129    1.016736   -0.860136
  C      1.784408    0.601093   -1.103688
  H      1.899582    0.349316   -2.162656
  H      2.428434    1.446248   -0.865529
  C     -0.658793    0.108140   -1.279568
  H     -1.536937    0.685631   -1.570151
  H     -0.305125   -0.427407   -2.165645
  C     -1.072309   -0.908384   -0.194337
  H     -0.407544   -1.775965   -0.209357
  H     -0.970216   -0.435292    0.790561
  C      2.137743   -0.689303   -0.348642
  N      2.567581   -0.603092    0.944396
  O      1.978129   -1.769483   -0.923329
  C      2.766015    0.622598    1.706567
  H      2.225628    0.548962    2.659806
  H      3.832039    0.760689    1.936246
  H      2.394003    1.500981    1.180484
  C      2.888943   -1.831795    1.656333
  H      2.236236   -1.947466    2.532262
  H      2.748984   -2.673168    0.979046
  H      3.929615   -1.806009    2.005405
  C     -2.542856   -1.284922   -0.340241
  O     -3.411770   -0.437990   -0.515085
  N     -2.825126   -2.613966   -0.229978
  H     -3.785321   -2.913207   -0.330907
  H     -2.101889   -3.313938   -0.166488

 Multiplicity           Mult            ....    1
 Number of Electrons    NEL             ....  116
 Basis Dimension        Dim             ....  244

ORBITAL ENERGIES
----------------

  NO   OCC          E(Eh)            E(eV)
   0   2.0000     -19.110037      -520.0105
   1   2.0000     -19.104620      -519.8631
   2   2.0000     -19.104344      -519.8556
   3   2.0000     -14.362160      -390.8142
   4   2.0000     -14.359861      -390.7517
   5   2.0000     -14.354443      -390.6043
   6   2.0000     -10.287944      -279.9492
   7   2.0000     -10.279998      -279.7330
   8   2.0000     -10.278794      -279.7002
   9   2.0000     -10.217065      -278.0205
  10   2.0000     -10.213781      -277.9311
  11   2.0000     -10.204442      -277.6770
  12   2.0000     -10.203988      -277.6646
  13   2.0000     -10.188099      -277.2323
  14   2.0000     -10.172689      -276.8129
  15   2.0000      -1.032187       -28.0872
  16   2.0000      -1.030796       -28.0494
  17   2.0000      -1.024411       -27.8756
  18   2.0000      -0.933215       -25.3941
  19   2.0000      -0.929998       -25.3065
  20   2.0000      -0.906943       -24.6792
  21   2.0000      -0.778352       -21.1800
  22   2.0000      -0.753920       -20.5152
  23   2.0000      -0.722026       -19.6473
  24   2.0000      -0.709030       -19.2937
  25   2.0000      -0.678067       -18.4511
  26   2.0000      -0.663928       -18.0664
  27   2.0000      -0.587922       -15.9982
  28   2.0000      -0.555296       -15.1104
  29   2.0000      -0.544135       -14.8067
  30   2.0000      -0.537210       -14.6182
  31   2.0000      -0.515010       -14.0141
  32   2.0000      -0.489311       -13.3148
  33   2.0000      -0.483674       -13.1614
  34   2.0000      -0.473368       -12.8810
  35   2.0000      -0.466999       -12.7077
  36   2.0000      -0.458114       -12.4659
  37   2.0000      -0.447534       -12.1780
  38   2.0000      -0.426557       -11.6072
  39   2.0000      -0.417189       -11.3523
  40   2.0000      -0.409601       -11.1458
  41   2.0000      -0.404356       -11.0031
  42   2.0000      -0.401384       -10.9222
  43   2.0000      -0.399769       -10.8783
  44   2.0000      -0.396824       -10.7981
  45   2.0000      -0.391380       -10.6500
  46   2.0000      -0.378141       -10.2897
  47   2.0000      -0.376776       -10.2526
  48   2.0000      -0.372346       -10.1321
  49   2.0000      -0.360676        -9.8145
  50   2.0000      -0.349445        -9.5089
  51   2.0000      -0.344634        -9.3780
  52   2.0000      -0.270658        -7.3650
  53   2.0000      -0.258696        -7.0395
  54   2.0000      -0.252749        -6.8777
  55   2.0000      -0.246105        -6.6969
  56   2.0000      -0.239703        -6.5226
  57   2.0000      -0.230132        -6.2622
  58   0.0000       0.013197         0.3591
  59   0.0000       0.021402         0.5824
  60   0.0000       0.035151         0.9565
  61   0.0000       0.070155         1.9090
  62   0.0000       0.091243         2.4829

MULLIKEN ATOMIC CHARGES
-----------------------
   0 C :   -0.557182
   1 H :    0.190031
   2 H :    0.179812
   3 H :    0.181625
   4 C :    0.520905
   5 O :   -0.479970
   6 N :   -0.378624
   7 C :   -0.238133
   8 H :    0.171606
   9 H :    0.195093
  10 C :   -0.168149
  11 H :    0.194168
  12 H :    0.170753
  13 C :   -0.377077
  14 H :    0.175963
  15 H :    0.174117
  16 C :    0.530033
  17 N :   -0.369031
  18 O :   -0.497150
  19 C :   -0.356846
  20 H :    0.152793
  21 H :    0.152869
  22 H :    0.225787
  23 C :   -0.322333
  24 H :    0.149229
  25 H :    0.198741
  26 H :    0.154769
  27 C :    0.544449
  28 O :   -0.468526
  29 N :   -0.737607
  30 H :    0.344742
  31 H :    0.343141
Sum of atomic charges:    0.0000000

LOEWDIN ATOMIC CHARGES
----------------------
   0 C :   -0.393945
   1 H :    0.149936
   2 H :    0.150710
   3 H :    0.150571
   4 C :    0.111138
   5 O :   -0.291311
   6 N :   -0.076035
   7 C :   -0.177054
   8 H :    0.141092
   9 H :    0.154826
  10 C :   -0.156070
  11 H :    0.147593
  12 H :    0.138895
  13 C :   -0.274293
  14 H :    0.141210
  15 H :    0.147213
  16 C :    0.095990
  17 N :   -0.077515
  18 O :   -0.301351
  19 C :   -0.290322
  20 H :    0.125641
  21 H :    0.123333
  22 H :    0.160314
  23 C :   -0.278786
  24 H :    0.122455
  25 H :    0.154108
  26 H :    0.125779
  27 C :    0.107039
  28 O :   -0.281854
  29 N :   -0.363707
  30 H :    0.258312
  31 H :    0.256087

  Mayer bond orders larger than 0.100000
B(  0-C ,  1-H ) :   0.9128 B(  0-C ,  2-H ) :   0.9283 B(  0-C ,  3-H ) :   0.9394
B(  0-C ,  4-C ) :   0.9842 B(  4-C ,  5-O ) :   1.7804 B(  4-C ,  6-N ) :   1.1281
B(  6-N ,  7-C ) :   0.9624 B(  6-N , 10-C ) :   0.9480 B(  7-C ,  8-H ) :   0.9206
B(  7-C ,  9-H ) :   0.8974 B(  7-C , 16-C ) :   0.9288 B( 10-C , 11-H ) :   0.9092
B( 10-C , 12-H ) :   0.9263 B( 10-C , 13-C ) :   0.9725 B( 13-C , 14-H ) :   0.9128
B( 13-C , 15-H ) :   0.9251 B( 13-C , 27-C ) :   0.9376 B( 16-C , 17-N ) :   1.1698
B( 16-C , 18-O ) :   1.7538 B( 17-N , 18-O ) :   0.1020 B( 17-N , 19-C ) :   0.9519
B( 17-N , 23-C ) :   0.9574 B( 19-C , 20-H ) :   0.9388 B( 19-C , 21-H ) :   0.9356
B( 19-C , 22-H ) :   0.8817 B( 23-C , 24-H ) :   0.9399 B( 23-C , 25-H ) :   0.9189
B( 23-C , 26-H ) :   0.9405 B( 27-C , 28-O ) :   1.8649 B( 27-C , 29-N ) :   1.1326
B( 29-N , 30-H ) :   0.8278 B( 29-N , 31-H ) :   0.8293

Dispersion correction           -0.053586450
FINAL SINGLE POINT ENERGY      -742.770074354807

DIPOLE MOMENT
-------------
                                X             Y             Z
Electronic contribution:     -3.06687       0.11217      -5.15260
Nuclear contribution   :      3.12475      -1.36424       5.71215
                        -----------------------------------------
Total Dipole Moment    :      0.05789      -1.25206       0.55956
                        -----------------------------------------
Magnitude (a.u.)       :      1.37263
Magnitude (Debye)      :      3.48895

Dispersion correction in the Hessian             ... Starting D4

VIBRATIONAL FREQUENCIES
-----------------------

Scaling factor for frequencies =  1.000000000  (already applied!)

   0:         0.00 cm**-1
   1:         0.00 cm**-1
   2:         0.00 cm**-1
   3:         0.00 cm**-1
   4:         0.00 cm**-1
   5:         0.00 cm**-1
   6:        11.64 cm**-1
   7:        28.79 cm**-1
   8:        36.13 cm**-1
   9:        63.58 cm**-1
  10:        70.79 cm**-1
  11:        99.42 cm**-1
  12:       104.84 cm**-1
  13:       129.07 cm**-1
  14:       139.43 cm**-1
  15:       170.08 cm**-1
  16:       177.11 cm**-1
  17:       188.97 cm**-1
  18:       204.85 cm**-1
  19:       231.22 cm**-1
  20:       252.73 cm**-1
  21:       285.08 cm**-1
  22:       360.29 cm**-1
  23:       365.55 cm**-1
  24:       395.62 cm**-1
  25:       435.11 cm**-1
  26:       447.41 cm**-1
  27:       476.41 cm**-1
  28:       482.43 cm**-1
  29:       548.36 cm**-1
  30:       575.35 cm**-1
  31:       589.10 cm**-1
  32:       600.69 cm**-1
  33:       638.43 cm**-1
  34:       693.80 cm**-1
  35:       714.32 cm**-1
  36:       760.11 cm**-1
  37:       799.13 cm**-1
  38:       833.53 cm**-1
  39:       917.51 cm**-1
  40:       959.71 cm**-1
  41:      1003.81 cm**-1
  42:      1019.45 cm**-1
  43:      1033.08 cm**-1
  44:      1040.96 cm**-1
  45:      1062.45 cm**-1
  46:      1090.22 cm**-1
  47:      1097.19 cm**-1
  48:      1127.55 cm**-1
  49:      1142.18 cm**-1
  50:      1175.47 cm**-1
  51:      1191.01 cm**-1
  52:      1231.47 cm**-1
  53:      1250.86 cm**-1
  54:      1287.18 cm**-1
  55:      1291.99 cm**-1
  56:      1305.94 cm**-1
  57:      1331.61 cm**-1
  58:      1376.47 cm**-1
  59:      1404.77 cm**-1
  60:      1424.85 cm**-1
  61:      1428.16 cm**-1
  62:      1447.06 cm**-1
  63:      1462.65 cm**-1
  64:      1472.77 cm**-1
  65:      1496.60 cm**-1
  66:      1501.43 cm**-1
  67:      1512.32 cm**-1
  68:      1517.92 cm**-1
  69:      1523.13 cm**-1
  70:      1526.03 cm**-1
  71:      1536.77 cm**-1
  72:      1540.30 cm**-1
  73:      1547.73 cm**-1
  74:      1571.38 cm**-1
  75:      1647.37 cm**-1
  76:      1737.73 cm**-1
  77:      1745.01 cm**-1
  78:      1795.49 cm**-1
  79:      3023.02 cm**-1
  80:      3033.29 cm**-1
  81:      3059.08 cm**-1
  82:      3060.85 cm**-1
  83:      3069.93 cm**-1
  84:      3078.74 cm**-1
  85:      3083.27 cm**-1
  86:      3092.77 cm**-1
  87:      3124.64 cm**-1
  88:      3127.53 cm**-1
  89:      3158.92 cm**-1
  90:      3171.09 cm**-1
  91:      3175.08 cm**-1
  92:      3185.96 cm**-1
  93:      3190.49 cm**-1
  94:      3588.24 cm**-1
  95:      3718.32 cm**-1

IR SPECTRUM
-----------

 Mode   freq       eps      Int      T**2         TX        TY        TZ
       cm**-1   L/(mol*cm) km/mol    a.u.
----------------------------------------------------------------------------
  6:     11.64   0.000525    2.65  0.014064  (-0.103019 -0.034220  0.047751)
  7:     28.79   0.000759    3.84  0.008232  (-0.059424 -0.064266 -0.023894)
  8:     36.13   0.001361    6.88  0.011753  (-0.000773  0.010111  0.107935)
  9:     63.58   0.000028    0.14  0.000138  ( 0.006559  0.008649 -0.004547)
 10:     70.79   0.001374    6.94  0.006055  (-0.071710  0.006851  0.029423)
 11:     99.42   0.000169    0.86  0.000531  ( 0.007359  0.015421 -0.015469)
 12:    104.84   0.000797    4.03  0.002373  ( 0.042164  0.006347 -0.023552)
 13:    129.07   0.001740    8.79  0.004208  ( 0.023108 -0.049455  0.035040)
 14:    139.43   0.000907    4.58  0.002030  ( 0.038069 -0.020069  0.013325)
 15:    170.08   0.000062    0.31  0.000114  (-0.005693 -0.005594 -0.007079)
 16:    177.11   0.000155    0.78  0.000273  ( 0.003970 -0.001182 -0.015981)
 17:    188.97   0.000892    4.51  0.001474  ( 0.026408  0.007403 -0.026858)
 18:    204.85   0.043057  217.59  0.065591  (-0.022566 -0.019548  0.254362)
 19:    231.22   0.000128    0.65  0.000172  (-0.000409 -0.009555 -0.008996)
 20:    252.73   0.000397    2.01  0.000490  (-0.021687 -0.004237 -0.001453)
 21:    285.08   0.002312   11.69  0.002531  (-0.048704  0.007872  0.009855)
 22:    360.29   0.001769    8.94  0.001533  ( 0.006150 -0.006314  0.038142)
 23:    365.55   0.000274    1.38  0.000234  (-0.003171 -0.010766 -0.010372)
 24:    395.62   0.001077    5.44  0.000850  ( 0.004780 -0.019548  0.021085)
 25:    435.11   0.000145    0.73  0.000104  ( 0.004662  0.008754 -0.002333)
 26:    447.41   0.001613    8.15  0.001125  ( 0.032901 -0.006090  0.002360)
 27:    476.41   0.001728    8.73  0.001132  (-0.022647 -0.024836  0.001471)
 28:    482.43   0.002062   10.42  0.001334  ( 0.031736 -0.013766 -0.011724)
 29:    548.36   0.004600   23.24  0.002618  ( 0.033227  0.032272 -0.021724)
 30:    575.35   0.002578   13.03  0.001398  ( 0.005297 -0.035687 -0.009821)
 31:    589.10   0.002582   13.05  0.001368  ( 0.017842  0.008473  0.031271)
 32:    600.69   0.002557   12.92  0.001328  ( 0.004209 -0.012746  0.033885)
 33:    638.43   0.000829    4.19  0.000405  ( 0.000043 -0.004241 -0.019684)
 34:    693.80   0.001104    5.58  0.000496  (-0.001685 -0.006937 -0.021107)
 35:    714.32   0.000891    4.50  0.000389  (-0.008566 -0.004619  0.017167)
 36:    760.11   0.000465    2.35  0.000191  (-0.007559 -0.005951  0.009926)
 37:    799.13   0.002548   12.88  0.000995  ( 0.028415 -0.011271  0.007775)
 38:    833.53   0.001079    5.45  0.000404  ( 0.008816 -0.002038  0.017944)
 39:    917.51   0.001160    5.86  0.000394  (-0.000253  0.011487  0.016201)
 40:    959.71   0.000587    2.97  0.000191  ( 0.000466  0.008806  0.010641)
 41:   1003.81   0.003950   19.96  0.001228  (-0.019246  0.008710 -0.027962)
 42:   1019.45   0.004120   20.82  0.001261  (-0.004254  0.034383 -0.007798)
 43:   1033.08   0.003786   19.13  0.001144  ( 0.019001 -0.026493 -0.008980)
 44:   1040.96   0.002351   11.88  0.000705  (-0.004505 -0.014719  0.021632)
 45:   1062.45   0.000548    2.77  0.000161  ( 0.002486 -0.002909  0.012099)
 46:   1090.22   0.004304   21.75  0.001232  (-0.012668 -0.018425 -0.027058)
 47:   1097.19   0.000689    3.48  0.000196  (-0.000759  0.011829 -0.007448)
 48:   1127.55   0.005134   25.95  0.001421  (-0.027444 -0.000224 -0.025841)
 49:   1142.18   0.000032    0.16  0.000009  (-0.002938 -0.000197  0.000306)
 50:   1175.47   0.009016   45.56  0.002394  ( 0.026631  0.013279  0.038834)
 51:   1191.01   0.000563    2.84  0.000147  ( 0.011857 -0.002124 -0.001520)
 52:   1231.47   0.003750   18.95  0.000950  ( 0.012641  0.003150 -0.027937)
 53:   1250.86   0.003041   15.37  0.000759  (-0.000727  0.026334  0.008034)
 54:   1287.18   0.004121   20.82  0.000999  (-0.004168 -0.004067  0.031066)
 55:   1291.99   0.014320   72.37  0.003459  (-0.026903  0.052237 -0.002527)
 56:   1305.94   0.020359  102.89  0.004865  ( 0.008092 -0.069109 -0.004834)
 57:   1331.61   0.012979   65.59  0.003042  (-0.035591 -0.041792  0.005329)
 58:   1376.47   0.001746    8.83  0.000396  (-0.009246 -0.017616  0.000346)
 59:   1404.77   0.004455   22.52  0.000990  (-0.022983 -0.021449 -0.001211)
 60:   1424.85   0.012720   64.28  0.002786  (-0.044086 -0.028954 -0.001986)
 61:   1428.16   0.015918   80.44  0.003478  (-0.041143 -0.039533 -0.014919)
 62:   1447.06   0.004316   21.81  0.000931  ( 0.014216 -0.000669  0.026986)
 63:   1462.65   0.021087  106.57  0.004499  ( 0.038615 -0.042273  0.034942)
 64:   1472.77   0.019423   98.16  0.004115  ( 0.006657 -0.056029 -0.030527)
 65:   1496.60   0.003663   18.51  0.000764  (-0.019086 -0.017644 -0.009388)
 66:   1501.43   0.002640   13.34  0.000549  ( 0.008477  0.002828 -0.021651)
 67:   1512.32   0.001578    7.97  0.000326  (-0.017372 -0.004364  0.002169)
 68:   1517.92   0.006092   30.78  0.001252  (-0.026783  0.021687  0.008046)
 69:   1523.13   0.003463   17.50  0.000710  ( 0.004367 -0.005820 -0.025625)
 70:   1526.03   0.000856    4.32  0.000175  (-0.008346  0.007789  0.006681)
 71:   1536.77   0.004162   21.03  0.000845  (-0.027302 -0.008263  0.005617)
 72:   1540.30   0.001400    7.08  0.000284  (-0.000573  0.000653  0.016820)
 73:   1547.73   0.000247    1.25  0.000050  ( 0.002112 -0.005994  0.003063)
 74:   1571.38   0.007233   36.55  0.001436  ( 0.010342 -0.017415  0.032034)
 75:   1647.37   0.025437  128.55  0.004819  ( 0.035290  0.059638  0.004061)
 76:   1737.73   0.046246  233.71  0.008305  (-0.021580 -0.050607 -0.072652)
 77:   1745.01   0.068726  347.31  0.012290  ( 0.063764  0.075129  0.050795)
 78:   1795.49   0.057438  290.27  0.009983  ( 0.039691 -0.091067  0.010701)
 79:   3023.02   0.007813   39.48  0.000806  ( 0.016724  0.015828  0.016621)
 80:   3033.29   0.017414   88.00  0.001792  (-0.018390  0.010411 -0.036674)
 81:   3059.08   0.000646    3.27  0.000066  ( 0.005284 -0.004918  0.003719)
 82:   3060.85   0.000604    3.05  0.000062  (-0.000814 -0.000061 -0.007804)
 83:   3069.93   0.008413   42.52  0.000855  (-0.025924 -0.002690  0.013264)
 84:   3078.74   0.005308   26.83  0.000538  ( 0.022857  0.000008 -0.003949)
 85:   3083.27   0.003025   15.29  0.000306  (-0.010648  0.003051  0.013547)
 86:   3092.77   0.004777   24.14  0.000482  (-0.001236  0.003120  0.021696)
 87:   3124.64   0.000817    4.13  0.000082  ( 0.000037 -0.001912 -0.008829)
 88:   3127.53   0.001057    5.34  0.000105  (-0.001147 -0.010204  0.000070)
 89:   3158.92   0.001682    8.50  0.000166  ( 0.004775 -0.011852 -0.001715)
 90:   3171.09   0.000165    0.84  0.000016  (-0.000609  0.003844 -0.001061)
 91:   3175.08   0.001020    5.15  0.000100  (-0.000001  0.008472  0.005334)
 92:   3185.96   0.003984   20.13  0.000390  ( 0.015556 -0.009949  0.007016)
 93:   3190.49   0.000169    0.85  0.000017  (-0.001548 -0.003712 -0.000603)
 94:   3588.24   0.007618   38.50  0.000663  (-0.009331 -0.023982 -0.000588)
 95:   3718.32   0.006469   32.69  0.000543  (-0.022251  0.006526 -0.002282)

--------------------------
THERMOCHEMISTRY AT 298.15K
--------------------------

Temperature         ... 298.15 K
Pressure            ... 1.00 atm
Total Mass          ... 215.25 AMU

Throughout the following assumptions are being made:
  (1) The electronic state is orbitally nondegenerate
  (2) There are no thermally accessible electronically excited states
  (3) Hindered rotations indicated by low frequency modes are not
      treated as such but are treated as vibrations and this may
      cause some error
  (4) All equations used are the standard statistical mechanics
      equations for an ideal gas
  (5) All vibrations are strictly harmonic

freq.      11.64  E(vib)   ...       0.58
freq.      28.79  E(vib)   ...       0.55
freq.      36.13  E(vib)   ...       0.54
freq.      63.58  E(vib)   ...       0.51
freq.      70.79  E(vib)   ...       0.50
freq.      99.42  E(vib)   ...       0.46
freq.     104.84  E(vib)   ...       0.46
freq.     129.07  E(vib)   ...       0.43
freq.     139.43  E(vib)   ...       0.42
freq.     170.08  E(vib)   ...       0.38
freq.     177.11  E(vib)   ...       0.37
freq.     188.97  E(vib)   ...       0.36
freq.     204.85  E(vib)   ...       0.35
freq.     231.22  E(vib)   ...       0.32
freq.     252.73  E(vib)   ...       0.30
freq.     285.08  E(vib)   ...       0.28
freq.     360.29  E(vib)   ...       0.22
freq.     365.55  E(vib)   ...       0.22
freq.     395.62  E(vib)   ...       0.20
freq.     435.11  E(vib)   ...       0.17
freq.     447.41  E(vib)   ...       0.17
freq.     476.41  E(vib)   ...       0.15
freq.     482.43  E(vib)   ...       0.15
freq.     548.36  E(vib)   ...       0.12
freq.     575.35  E(vib)   ...       0.11
freq.     589.10  E(vib)   ...       0.10
freq.     600.69  E(vib)   ...       0.10
freq.     638.43  E(vib)   ...       0.09
freq.     693.80  E(vib)   ...       0.07
freq.     714.32  E(vib)   ...       0.07
freq.     760.11  E(vib)   ...       0.06
freq.     799.13  E(vib)   ...       0.05
freq.     833.53  E(vib)   ...       0.04
freq.     917.51  E(vib)   ...       0.03
freq.     959.71  E(vib)   ...       0.03
freq.    1003.81  E(vib)   ...       0.02
freq.    1019.45  E(vib)   ...       0.02
freq.    1033.08  E(vib)   ...       0.02
freq.    1040.96  E(vib)   ...       0.02
freq.    1062.45  E(vib)   ...       0.02
freq.    1090.22  E(vib)   ...       0.02
freq.    1097.19  E(vib)   ...       0.02
freq.    1127.55  E(vib)   ...       0.01
freq.    1142.18  E(vib)   ...       0.01
freq.    1175.47  E(vib)   ...       0.01
freq.    1191.01  E(vib)   ...       0.01
freq.    1231.47  E(vib)   ...       0.01
freq.    1250.86  E(vib)   ...       0.01
freq.    1287.18  E(vib)   ...       0.01
freq.    1291.99  E(vib)   ...       0.01
freq.    1305.94  E(vib)   ...       0.01
freq.    1331.61  E(vib)   ...       0.01
freq.    1376.47  E(vib)   ...       0.01
freq.    1404.77  E(vib)   ...       0.00
freq.    1424.85  E(vib)   ...       0.00
freq.    1428.16  E(vib)   ...       0.00
freq.    1447.06  E(vib)   ...       0.00
freq.    1462.65  E(vib)   ...       0.00
freq.    1472.77  E(vib)   ...       0.00
freq.    1496.60  E(vib)   ...       0.00
freq.    1501.43  E(vib)   ...       0.00
freq.    1512.32  E(vib)   ...       0.00
freq.    1517.92  E(vib)   ...       0.00
freq.    1523.13  E(vib)   ...       0.00
freq.    1526.03  E(vib)   ...       0.00
freq.    1536.77  E(vib)   ...       0.00
freq.    1540.30  E(vib)   ...       0.00
freq.    1547.73  E(vib)   ...       0.00
freq.    1571.38  E(vib)   ...       0.00
freq.    1647.37  E(vib)   ...       0.00
freq.    1737.73  E(vib)   ...       0.00
freq.    1745.01  E(vib)   ...       0.00
freq.    1795.49  E(vib)   ...       0.00
freq.    3023.02  E(vib)   ...       0.00
freq.    3033.29  E(vib)   ...       0.00
freq.    3059.08  E(vib)   ...       0.00
freq.    3060.85  E(vib)   ...       0.00
freq.    3069.93  E(vib)   ...       0.00
freq.    3078.74  E(vib)   ...       0.00
freq.    3083.27  E(vib)   ...       0.00
freq.    3092.77  E(vib)   ...       0.00
freq.    3124.64  E(vib)   ...       0.00
freq.    3127.53  E(vib)   ...       0.00
freq.    3158.92  E(vib)   ...       0.00
freq.    3171.09  E(vib)   ...       0.00
freq.    3175.08  E(vib)   ...       0.00
freq.    3185.96  E(vib)   ...       0.00
freq.    3190.49  E(vib)   ...       0.00
freq.    3588.24  E(vib)   ...       0.00
freq.    3718.32  E(vib)   ...       0.00

------------
INNER ENERGY
------------

The inner energy is: U= E(el) + E(ZPE) + E(vib) + E(rot) + E(trans)
    E(el)   - is the total energy from the electronic structure calculation
              = E(kin-el) + E(nuc-el) + E(el-el) + E(nuc-nuc)
    E(ZPE)  - the the zero temperature vibrational energy from the frequency calculation
    E(vib)  - the the finite temperature correction to E(ZPE) due to population
              of excited vibrational states
    E(rot)  - is the rotational thermal energy
    E(trans)- is the translational thermal energy

Summary of contributions to the inner energy U:
Electronic energy                ...   -742.77007435 Eh
Zero point energy                ...      0.27252844 Eh     171.01 kcal/mol
Thermal vibrational correction   ...      0.01471778 Eh       9.24 kcal/mol
Thermal rotational correction    ...      0.00141627 Eh       0.89 kcal/mol
Thermal translational correction ...      0.00141627 Eh       0.89 kcal/mol
-----------------------------------------------------------------------
Total thermal energy                   -742.47999559 Eh

Summary of corrections to the electronic energy:
(perhaps to be used in another calculation)
Total thermal correction                  0.01755033 Eh      11.01 kcal/mol
Non-thermal (ZPE) correction              0.27252844 Eh     171.01 kcal/mol
-----------------------------------------------------------------------
Total correction                          0.29007877 Eh     182.03 kcal/mol

--------
ENTHALPY
--------

The enthalpy is H = U + kB*T
                kB is Boltzmann's constant
Total free energy                 ...   -742.47999559 Eh
Thermal Enthalpy correction       ...      0.00094421 Eh       0.59 kcal/mol
-----------------------------------------------------------------------
Total Enthalpy                    ...   -742.47905138 Eh

Note: Only C1 symmetry has been detected, increase convergence thresholds
      if your molecule has a higher symmetry. Symmetry factor of 1.0 is
      used for the rotational entropy correction.

Note: Rotational entropy computed according to Herzberg
Infrared and Raman Spectra, Chapter V,1, Van Nostrand Reinhold, 1945
Point Group:  C1, Symmetry Number:   1
Rotational constants in cm-1:     0.023004     0.014639     0.010553

                             ****ORCA TERMINATED NORMALLY****
TOTAL RUN TIME: 0 days 0 hours 31 minutes 20 seconds 893 msec
