                         Program Version 5.0.4 -  RELEASE  -
|  1> ! OPT FREQ B3LYP 6-31G(d) D4 AUTOAUX
|  2>
|  3> %PAL NPROCS 4 END
|  4>
|  5> %maxcore 3375
|  6>
|  7> *xyzfile 0 1 /users/fjb15167/WWenergy/structures/Ni.xyz
|  8>
|  9>                          ****END OF INPUT****
 Total Charge           Charge          ....    0
 Multiplicity           Mult            ....    1
 Number of Electrons    NEL             ....  110
Dispersion correction           -0.058217458
FINAL SINGLE POINT ENERGY      -652.722517274688
Dispersion correction            ... Starting D4
Dispersion correction           -0.057651346
FINAL SINGLE POINT ENERGY      -652.722994724943
Dispersion correction            ... Starting D4
Dispersion correction           -0.057665089
FINAL SINGLE POINT ENERGY      -652.723033158900
Dispersion correction            ... Starting D4
FINAL SINGLE POINT ENERGY      -652.723105754149
FINAL SINGLE POINT ENERGY      -652.723113503160
FINAL SINGLE POINT ENERGY      -652.723131153597
FINAL SINGLE POINT ENERGY      -652.723144330873
FINAL SINGLE POINT ENERGY      -652.723154332742
FINAL SINGLE POINT ENERGY      -652.723166736853
FINAL SINGLE POINT ENERGY      -652.723177463229
FINAL SINGLE POINT ENERGY      -652.723185028315
Dispersion correction           -0.057665564
FINAL SINGLE POINT ENERGY      -652.723191516420
Dispersion correction            ... Starting D4
Dispersion correction           -0.057689405
FINAL SINGLE POINT ENERGY      -652.723196333472
Dispersion correction            ... Starting D4
                    ***********************HURRAY********************

CARTESIAN COORDINATES (ANGSTROEM)
---------------------------------
  C     -2.598072   -1.485250   -0.932790
  H     -2.626277   -0.582578   -1.545289
  H     -3.475582   -1.479008   -0.276842
  H     -2.660804   -2.364669   -1.575996
  C     -1.331544   -1.630102   -0.104906
  O     -0.821436   -2.746142    0.020621
  N     -0.793649   -0.522109    0.502532
  C      0.395262   -0.716670    1.338265
  H      0.190404   -0.357347    2.351524
  H      0.602671   -1.784863    1.376895
  C      1.581259    0.126219    0.846666
  N      2.289669   -0.311366   -0.238616
  O      1.833501    1.189332    1.416124
  C      2.029972   -1.526000   -0.996461
  H      1.745568   -1.273569   -2.028007
  H      2.940755   -2.138385   -1.040472
  H      1.228688   -2.121216   -0.561415
  C      3.369955    0.521307   -0.746797
  H      3.151927    0.847953   -1.773048
  H      3.470266    1.391276   -0.099263
  H      4.311303   -0.043367   -0.758948
  C     -1.254399    0.885829    0.409153
  H     -0.629998    1.401819    1.144208
  C     -0.913701    1.525507   -0.953001
  H      0.072005    1.160754   -1.264216
  H     -1.625215    1.197084   -1.721417
  C     -0.887714    3.056481   -0.895707
  H     -0.602135    3.477240   -1.866361
  H     -1.866094    3.474396   -0.631580
  H     -0.158447    3.400816   -0.152674
  C     -2.708147    1.098559    0.851861
  H     -2.875940    2.161575    1.053397
  H     -3.435047    0.790223    0.095788
  H     -2.914006    0.547269    1.775772

 Multiplicity           Mult            ....    1
 Number of Electrons    NEL             ....  110
 Basis Dimension        Dim             ....  236

ORBITAL ENERGIES
----------------

  NO   OCC          E(Eh)            E(eV)
   0   2.0000     -19.102433      -519.8036
   1   2.0000     -19.101609      -519.7812
   2   2.0000     -14.357910      -390.6986
   3   2.0000     -14.357279      -390.6814
   4   2.0000     -10.280160      -279.7374
   5   2.0000     -10.275218      -279.6029
   6   2.0000     -10.221614      -278.1443
   7   2.0000     -10.209189      -277.8062
   8   2.0000     -10.203119      -277.6410
   9   2.0000     -10.200304      -277.5644
  10   2.0000     -10.179643      -277.0022
  11   2.0000     -10.178725      -276.9772
  12   2.0000     -10.174714      -276.8680
  13   2.0000     -10.168276      -276.6929
  14   2.0000      -1.029426       -28.0121
  15   2.0000      -1.022264       -27.8172
  16   2.0000      -0.929995       -25.3064
  17   2.0000      -0.925745       -25.1908
  18   2.0000      -0.795928       -21.6583
  19   2.0000      -0.755039       -20.5457
  20   2.0000      -0.728530       -19.8243
  21   2.0000      -0.720282       -19.5999
  22   2.0000      -0.707020       -19.2390
  23   2.0000      -0.671843       -18.2818
  24   2.0000      -0.654350       -17.8058
  25   2.0000      -0.602126       -16.3847
  26   2.0000      -0.544396       -14.8138
  27   2.0000      -0.526958       -14.3393
  28   2.0000      -0.505830       -13.7643
  29   2.0000      -0.490835       -13.3563
  30   2.0000      -0.481469       -13.1014
  31   2.0000      -0.464781       -12.6473
  32   2.0000      -0.459036       -12.4910
  33   2.0000      -0.451285       -12.2801
  34   2.0000      -0.445299       -12.1172
  35   2.0000      -0.432336       -11.7644
  36   2.0000      -0.412950       -11.2369
  37   2.0000      -0.409253       -11.1363
  38   2.0000      -0.402124       -10.9424
  39   2.0000      -0.398705       -10.8493
  40   2.0000      -0.396220       -10.7817
  41   2.0000      -0.391842       -10.6625
  42   2.0000      -0.390495       -10.6259
  43   2.0000      -0.385435       -10.4882
  44   2.0000      -0.374125       -10.1805
  45   2.0000      -0.366226        -9.9655
  46   2.0000      -0.364809        -9.9269
  47   2.0000      -0.349051        -9.4982
  48   2.0000      -0.343100        -9.3362
  49   2.0000      -0.334163        -9.0930
  50   2.0000      -0.330091        -8.9822
  51   2.0000      -0.252670        -6.8755
  52   2.0000      -0.245105        -6.6696
  53   2.0000      -0.235486        -6.4079
  54   2.0000      -0.229565        -6.2468
  55   0.0000       0.017383         0.4730
  56   0.0000       0.032910         0.8955
  57   0.0000       0.073267         1.9937
  58   0.0000       0.091645         2.4938
  59   0.0000       0.103733         2.8227

MULLIKEN ATOMIC CHARGES
-----------------------
   0 C :   -0.545806
   1 H :    0.164153
   2 H :    0.179705
   3 H :    0.183813
   4 C :    0.526557
   5 O :   -0.485105
   6 N :   -0.390039
   7 C :   -0.253819
   8 H :    0.173204
   9 H :    0.202299
  10 C :    0.523640
  11 N :   -0.367412
  12 O :   -0.484745
  13 C :   -0.350001
  14 H :    0.149419
  15 H :    0.153178
  16 H :    0.218787
  17 C :   -0.322438
  18 H :    0.148121
  19 H :    0.202644
  20 H :    0.152731
  21 C :    0.020686
  22 H :    0.177369
  23 C :   -0.261291
  24 H :    0.150460
  25 H :    0.134180
  26 C :   -0.457252
  27 H :    0.146436
  28 H :    0.145304
  29 H :    0.166184
  30 C :   -0.463021
  31 H :    0.157354
  32 H :    0.148540
  33 H :    0.156165
Sum of atomic charges:   -0.0000000

LOEWDIN ATOMIC CHARGES
----------------------
   0 C :   -0.388799
   1 H :    0.135294
   2 H :    0.149945
   3 H :    0.151668
   4 C :    0.110971
   5 O :   -0.296336
   6 N :   -0.075520
   7 C :   -0.179998
   8 H :    0.140266
   9 H :    0.157795
  10 C :    0.093825
  11 N :   -0.080284
  12 O :   -0.291601
  13 C :   -0.288187
  14 H :    0.121964
  15 H :    0.124708
  16 H :    0.158238
  17 C :   -0.278963
  18 H :    0.121366
  19 H :    0.156114
  20 H :    0.124773
  21 C :   -0.063477
  22 H :    0.147384
  23 C :   -0.238008
  24 H :    0.128468
  25 H :    0.116253
  26 C :   -0.366198
  27 H :    0.127850
  28 H :    0.122342
  29 H :    0.133711
  30 C :   -0.367418
  31 H :    0.133656
  32 H :    0.125513
  33 H :    0.132685

  Mayer bond orders larger than 0.100000
B(  0-C ,  1-H ) :   0.9200 B(  0-C ,  2-H ) :   0.9284 B(  0-C ,  3-H ) :   0.9388
B(  0-C ,  4-C ) :   0.9827 B(  4-C ,  5-O ) :   1.7644 B(  4-C ,  6-N ) :   1.1439
B(  6-N ,  7-C ) :   0.9546 B(  6-N , 21-C ) :   0.9059 B(  7-C ,  8-H ) :   0.9199
B(  7-C ,  9-H ) :   0.8923 B(  7-C , 10-C ) :   0.9293 B( 10-C , 11-N ) :   1.1566
B( 10-C , 12-O ) :   1.7820 B( 11-N , 12-O ) :   0.1007 B( 11-N , 13-C ) :   0.9565
B( 11-N , 17-C ) :   0.9569 B( 13-C , 14-H ) :   0.9368 B( 13-C , 15-H ) :   0.9370
B( 13-C , 16-H ) :   0.8883 B( 17-C , 18-H ) :   0.9398 B( 17-C , 19-H ) :   0.9179
B( 17-C , 20-H ) :   0.9410 B( 21-C , 22-H ) :   0.9063 B( 21-C , 23-C ) :   0.9876
B( 21-C , 30-C ) :   1.0041 B( 23-C , 24-H ) :   0.9332 B( 23-C , 25-H ) :   0.9302
B( 23-C , 26-C ) :   1.0122 B( 26-C , 27-H ) :   0.9508 B( 26-C , 28-H ) :   0.9491
B( 26-C , 29-H ) :   0.9456 B( 30-C , 31-H ) :   0.9407 B( 30-C , 32-H ) :   0.9407
B( 30-C , 33-H ) :   0.9458

Dispersion correction           -0.057689628
FINAL SINGLE POINT ENERGY      -652.723198615217

DIPOLE MOMENT
-------------
                                X             Y             Z
Electronic contribution:      4.80769      -7.40669       6.63558
Nuclear contribution   :     -5.20068       7.81393      -7.47246
                        -----------------------------------------
Total Dipole Moment    :     -0.39298       0.40724      -0.83688
                        -----------------------------------------
Magnitude (a.u.)       :      1.01027
Magnitude (Debye)      :      2.56791

Dispersion correction in the Hessian             ... Starting D4

VIBRATIONAL FREQUENCIES
-----------------------

Scaling factor for frequencies =  1.000000000  (already applied!)

   0:         0.00 cm**-1
   1:         0.00 cm**-1
   2:         0.00 cm**-1
   3:         0.00 cm**-1
   4:         0.00 cm**-1
   5:         0.00 cm**-1
   6:        17.88 cm**-1
   7:        27.84 cm**-1
   8:        62.39 cm**-1
   9:        75.55 cm**-1
  10:        81.43 cm**-1
  11:       105.62 cm**-1
  12:       119.38 cm**-1
  13:       146.85 cm**-1
  14:       162.38 cm**-1
  15:       173.49 cm**-1
  16:       203.94 cm**-1
  17:       215.46 cm**-1
  18:       238.08 cm**-1
  19:       266.01 cm**-1
  20:       274.41 cm**-1
  21:       282.19 cm**-1
  22:       305.57 cm**-1
  23:       351.66 cm**-1
  24:       381.61 cm**-1
  25:       400.74 cm**-1
  26:       424.07 cm**-1
  27:       441.60 cm**-1
  28:       484.81 cm**-1
  29:       530.97 cm**-1
  30:       586.85 cm**-1
  31:       603.80 cm**-1
  32:       642.03 cm**-1
  33:       704.41 cm**-1
  34:       742.59 cm**-1
  35:       787.36 cm**-1
  36:       806.61 cm**-1
  37:       866.84 cm**-1
  38:       943.89 cm**-1
  39:       989.10 cm**-1
  40:       997.99 cm**-1
  41:      1007.64 cm**-1
  42:      1014.49 cm**-1
  43:      1042.30 cm**-1
  44:      1066.85 cm**-1
  45:      1075.82 cm**-1
  46:      1096.49 cm**-1
  47:      1141.90 cm**-1
  48:      1147.13 cm**-1
  49:      1152.62 cm**-1
  50:      1167.39 cm**-1
  51:      1190.44 cm**-1
  52:      1202.51 cm**-1
  53:      1234.85 cm**-1
  54:      1279.67 cm**-1
  55:      1292.22 cm**-1
  56:      1313.65 cm**-1
  57:      1358.58 cm**-1
  58:      1372.49 cm**-1
  59:      1384.47 cm**-1
  60:      1404.76 cm**-1
  61:      1422.74 cm**-1
  62:      1436.98 cm**-1
  63:      1443.32 cm**-1
  64:      1448.30 cm**-1
  65:      1461.52 cm**-1
  66:      1496.59 cm**-1
  67:      1500.36 cm**-1
  68:      1512.99 cm**-1
  69:      1513.35 cm**-1
  70:      1519.45 cm**-1
  71:      1523.87 cm**-1
  72:      1527.35 cm**-1
  73:      1530.19 cm**-1
  74:      1535.70 cm**-1
  75:      1537.48 cm**-1
  76:      1538.21 cm**-1
  77:      1542.98 cm**-1
  78:      1551.13 cm**-1
  79:      1570.48 cm**-1
  80:      1730.38 cm**-1
  81:      1743.54 cm**-1
  82:      3020.91 cm**-1
  83:      3031.13 cm**-1
  84:      3047.08 cm**-1
  85:      3048.72 cm**-1
  86:      3063.29 cm**-1
  87:      3066.75 cm**-1
  88:      3075.10 cm**-1
  89:      3077.84 cm**-1
  90:      3082.79 cm**-1
  91:      3086.08 cm**-1
  92:      3093.80 cm**-1
  93:      3115.50 cm**-1
  94:      3118.81 cm**-1
  95:      3127.96 cm**-1
  96:      3144.65 cm**-1
  97:      3148.47 cm**-1
  98:      3172.77 cm**-1
  99:      3179.01 cm**-1
 100:      3189.71 cm**-1
 101:      3191.53 cm**-1

IR SPECTRUM
-----------

 Mode   freq       eps      Int      T**2         TX        TY        TZ
       cm**-1   L/(mol*cm) km/mol    a.u.
----------------------------------------------------------------------------
  6:     17.88   0.000550    2.78  0.009596  ( 0.058318 -0.050254  0.060576)
  7:     27.84   0.000343    1.74  0.003850  ( 0.011996 -0.028689  0.053690)
  8:     62.39   0.000098    0.50  0.000491  ( 0.014657  0.001195  0.016567)
  9:     75.55   0.000134    0.68  0.000552  ( 0.012923 -0.001321  0.019583)
 10:     81.43   0.000218    1.10  0.000836  ( 0.015310 -0.005879  0.023804)
 11:    105.62   0.000153    0.77  0.000452  (-0.003885  0.004749 -0.020345)
 12:    119.38   0.002026   10.24  0.005296  (-0.068000 -0.011722  0.023120)
 13:    146.85   0.000554    2.80  0.001178  ( 0.034057 -0.004137  0.001033)
 14:    162.38   0.000048    0.24  0.000093  (-0.005579 -0.005283 -0.005819)
 15:    173.49   0.000191    0.96  0.000343  ( 0.017215  0.004275 -0.005312)
 16:    203.94   0.000167    0.84  0.000256  (-0.003433 -0.011793  0.010230)
 17:    215.46   0.000377    1.91  0.000546  ( 0.010476 -0.004502  0.020398)
 18:    238.08   0.000066    0.34  0.000087  (-0.006957 -0.003074 -0.005403)
 19:    266.01   0.000036    0.18  0.000043  (-0.005086  0.003839 -0.001408)
 20:    274.41   0.000939    4.74  0.001067  ( 0.032461 -0.000629  0.003647)
 21:    282.19   0.000561    2.83  0.000620  ( 0.015873 -0.017166  0.008558)
 22:    305.57   0.000534    2.70  0.000545  ( 0.017866 -0.003342  0.014650)
 23:    351.66   0.001002    5.06  0.000889  (-0.026799 -0.006416  0.011377)
 24:    381.61   0.001698    8.58  0.001389  (-0.020180  0.022193  0.022109)
 25:    400.74   0.000688    3.48  0.000536  (-0.000287 -0.016673  0.016061)
 26:    424.07   0.000708    3.58  0.000521  ( 0.022499  0.000305 -0.003845)
 27:    441.60   0.001055    5.33  0.000745  ( 0.013192  0.019928 -0.013194)
 28:    484.81   0.001086    5.49  0.000699  (-0.018142 -0.013134 -0.014039)
 29:    530.97   0.002731   13.80  0.001605  ( 0.028418  0.000410  0.028240)
 30:    586.85   0.002146   10.84  0.001141  ( 0.025669  0.016388 -0.014616)
 31:    603.80   0.001196    6.05  0.000618  ( 0.003702  0.012740 -0.021032)
 32:    642.03   0.002981   15.06  0.001449  ( 0.019465 -0.022792 -0.023460)
 33:    704.41   0.000481    2.43  0.000213  (-0.009730 -0.008358 -0.006975)
 34:    742.59   0.000105    0.53  0.000044  (-0.000091 -0.005276  0.004051)
 35:    787.36   0.001770    8.94  0.000701  (-0.024082  0.004284  0.010158)
 36:    806.61   0.001946    9.84  0.000753  (-0.021994  0.009228  0.013568)
 37:    866.84   0.000473    2.39  0.000170  (-0.007163  0.010373  0.003354)
 38:    943.89   0.000273    1.38  0.000090  (-0.006119 -0.001824  0.007042)
 39:    989.10   0.002727   13.78  0.000860  (-0.018901 -0.000301  0.022431)
 40:    997.99   0.000885    4.47  0.000277  (-0.013844 -0.004989  0.007752)
 41:   1007.64   0.002665   13.47  0.000825  (-0.017004  0.016313  0.016436)
 42:   1014.49   0.002420   12.23  0.000744  (-0.013214 -0.023672  0.003064)
 43:   1042.30   0.001165    5.89  0.000349  (-0.005126 -0.009918  0.014969)
 44:   1066.85   0.001255    6.34  0.000367  (-0.014544 -0.004111  0.011781)
 45:   1075.82   0.002819   14.25  0.000818  ( 0.003120 -0.008016 -0.027271)
 46:   1096.49   0.000847    4.28  0.000241  ( 0.006789  0.013676 -0.002797)
 47:   1141.90   0.000066    0.33  0.000018  ( 0.001960 -0.003502  0.001367)
 48:   1147.13   0.006960   35.17  0.001893  ( 0.019240 -0.036353 -0.014197)
 49:   1152.62   0.004988   25.21  0.001351  ( 0.034525 -0.008818 -0.008989)
 50:   1167.39   0.001744    8.81  0.000466  ( 0.016421 -0.001271 -0.013963)
 51:   1190.44   0.000487    2.46  0.000128  (-0.008716  0.007161 -0.000548)
 52:   1202.51   0.006641   33.56  0.001723  ( 0.010795 -0.018098 -0.035766)
 53:   1234.85   0.003483   17.60  0.000880  ( 0.004374 -0.024014  0.016862)
 54:   1279.67   0.012941   65.40  0.003156  ( 0.034741  0.027960  0.034163)
 55:   1292.22   0.017626   89.07  0.004257  (-0.053185 -0.037391  0.005457)
 56:   1313.65   0.001845    9.32  0.000438  ( 0.017603 -0.006717  0.009123)
 57:   1358.58   0.003711   18.75  0.000852  ( 0.018837  0.022178  0.002383)
 58:   1372.49   0.000352    1.78  0.000080  (-0.006278  0.006232 -0.001295)
 59:   1384.47   0.008941   45.19  0.002015  (-0.019045 -0.039817 -0.008203)
 60:   1404.76   0.003771   19.06  0.000838  (-0.012176 -0.026121 -0.002676)
 61:   1422.74   0.006512   32.91  0.001428  ( 0.026669  0.020694  0.016994)
 62:   1436.98   0.000420    2.12  0.000091  ( 0.006787 -0.002866 -0.006069)
 63:   1443.32   0.002650   13.39  0.000573  (-0.002698  0.021191  0.010797)
 64:   1448.30   0.007003   35.39  0.001509  ( 0.015695 -0.023342 -0.026792)
 65:   1461.52   0.016216   81.95  0.003462  ( 0.048064 -0.006554 -0.033305)
 66:   1496.59   0.008378   42.34  0.001747  ( 0.011867  0.039862 -0.004129)
 67:   1500.36   0.001139    5.75  0.000237  (-0.013594 -0.003077  0.006523)
 68:   1512.99   0.000328    1.66  0.000068  (-0.005825 -0.004903  0.003102)
 69:   1513.35   0.000786    3.97  0.000162  ( 0.009965  0.007262  0.003175)
 70:   1519.45   0.000388    1.96  0.000080  (-0.006828  0.002350  0.005258)
 71:   1523.87   0.002275   11.50  0.000466  ( 0.017843  0.010418  0.006240)
 72:   1527.35   0.007643   38.63  0.001562  ( 0.027451  0.013565  0.024982)
 73:   1530.19   0.000259    1.31  0.000053  ( 0.000441  0.002925 -0.006635)
 74:   1535.70   0.000771    3.89  0.000157  (-0.007357  0.009941  0.001901)
 75:   1537.48   0.004069   20.56  0.000826  (-0.020175  0.020444  0.000924)
 76:   1538.21   0.003355   16.95  0.000681  ( 0.008790 -0.003816  0.024265)
 77:   1542.98   0.001401    7.08  0.000283  ( 0.008505  0.014518  0.000553)
 78:   1551.13   0.003041   15.37  0.000612  (-0.015124 -0.010422 -0.016567)
 79:   1570.48   0.007819   39.52  0.001554  ( 0.025593  0.005306 -0.029506)
 80:   1730.38   0.055844  282.21  0.010071  (-0.024337  0.097285  0.003787)
 81:   1743.54   0.059379  300.08  0.010628  ( 0.014401 -0.075861 -0.068305)
 82:   3020.91   0.006083   30.74  0.000628  (-0.002836  0.018704  0.016448)
 83:   3031.13   0.016405   82.90  0.001689  ( 0.026642 -0.000603 -0.031285)
 84:   3047.08   0.003355   16.95  0.000344  ( 0.001153 -0.017447  0.006153)
 85:   3048.72   0.006090   30.78  0.000623  (-0.002279 -0.019312 -0.015659)
 86:   3063.29   0.003110   15.72  0.000317  (-0.015740  0.005966  0.005783)
 87:   3066.75   0.009700   49.02  0.000987  (-0.024061  0.016892 -0.011079)
 88:   3075.10   0.001362    6.88  0.000138  (-0.011626  0.001647 -0.000554)
 89:   3077.84   0.005882   29.73  0.000596  ( 0.019198 -0.010816  0.010530)
 90:   3082.79   0.002793   14.12  0.000283  (-0.011697  0.003549 -0.011548)
 91:   3086.08   0.002437   12.32  0.000246  ( 0.006068 -0.004274 -0.013835)
 92:   3093.80   0.000826    4.18  0.000083  (-0.003770 -0.004765 -0.006814)
 93:   3115.50   0.007481   37.81  0.000749  (-0.015387 -0.007005  0.021528)
 94:   3118.81   0.007044   35.60  0.000705  ( 0.024807  0.001655  0.009309)
 95:   3127.96   0.005073   25.64  0.000506  ( 0.009466 -0.019914  0.004459)
 96:   3144.65   0.005964   30.14  0.000592  (-0.010767 -0.009063 -0.019845)
 97:   3148.47   0.001204    6.08  0.000119  ( 0.000974  0.002751 -0.010527)
 98:   3172.77   0.000254    1.28  0.000025  (-0.004932 -0.000734  0.000275)
 99:   3179.01   0.002103   10.63  0.000206  (-0.003033  0.013726 -0.002982)
100:   3189.71   0.002087   10.54  0.000204  (-0.013882 -0.003346  0.000489)
101:   3191.53   0.000930    4.70  0.000091  ( 0.009396 -0.001633 -0.000073)

--------------------------
THERMOCHEMISTRY AT 298.15K
--------------------------

Temperature         ... 298.15 K
Pressure            ... 1.00 atm
Total Mass          ... 200.28 AMU

Throughout the following assumptions are being made:
  (1) The electronic state is orbitally nondegenerate
  (2) There are no thermally accessible electronically excited states
  (3) Hindered rotations indicated by low frequency modes are not
      treated as such but are treated as vibrations and this may
      cause some error
  (4) All equations used are the standard statistical mechanics
      equations for an ideal gas
  (5) All vibrations are strictly harmonic

freq.      17.88  E(vib)   ...       0.57
freq.      27.84  E(vib)   ...       0.55
freq.      62.39  E(vib)   ...       0.51
freq.      75.55  E(vib)   ...       0.49
freq.      81.43  E(vib)   ...       0.48
freq.     105.62  E(vib)   ...       0.45
freq.     119.38  E(vib)   ...       0.44
freq.     146.85  E(vib)   ...       0.41
freq.     162.38  E(vib)   ...       0.39
freq.     173.49  E(vib)   ...       0.38
freq.     203.94  E(vib)   ...       0.35
freq.     215.46  E(vib)   ...       0.34
freq.     238.08  E(vib)   ...       0.32
freq.     266.01  E(vib)   ...       0.29
freq.     274.41  E(vib)   ...       0.28
freq.     282.19  E(vib)   ...       0.28
freq.     305.57  E(vib)   ...       0.26
freq.     351.66  E(vib)   ...       0.23
freq.     381.61  E(vib)   ...       0.21
freq.     400.74  E(vib)   ...       0.19
freq.     424.07  E(vib)   ...       0.18
freq.     441.60  E(vib)   ...       0.17
freq.     484.81  E(vib)   ...       0.15
freq.     530.97  E(vib)   ...       0.13
freq.     586.85  E(vib)   ...       0.11
freq.     603.80  E(vib)   ...       0.10
freq.     642.03  E(vib)   ...       0.09
freq.     704.41  E(vib)   ...       0.07
freq.     742.59  E(vib)   ...       0.06
freq.     787.36  E(vib)   ...       0.05
freq.     806.61  E(vib)   ...       0.05
freq.     866.84  E(vib)   ...       0.04
freq.     943.89  E(vib)   ...       0.03
freq.     989.10  E(vib)   ...       0.02
freq.     997.99  E(vib)   ...       0.02
freq.    1007.64  E(vib)   ...       0.02
freq.    1014.49  E(vib)   ...       0.02
freq.    1042.30  E(vib)   ...       0.02
freq.    1066.85  E(vib)   ...       0.02
freq.    1075.82  E(vib)   ...       0.02
freq.    1096.49  E(vib)   ...       0.02
freq.    1141.90  E(vib)   ...       0.01
freq.    1147.13  E(vib)   ...       0.01
freq.    1152.62  E(vib)   ...       0.01
freq.    1167.39  E(vib)   ...       0.01
freq.    1190.44  E(vib)   ...       0.01
freq.    1202.51  E(vib)   ...       0.01
freq.    1234.85  E(vib)   ...       0.01
freq.    1279.67  E(vib)   ...       0.01
freq.    1292.22  E(vib)   ...       0.01
freq.    1313.65  E(vib)   ...       0.01
freq.    1358.58  E(vib)   ...       0.01
freq.    1372.49  E(vib)   ...       0.01
freq.    1384.47  E(vib)   ...       0.00
freq.    1404.76  E(vib)   ...       0.00
freq.    1422.74  E(vib)   ...       0.00
freq.    1436.98  E(vib)   ...       0.00
freq.    1443.32  E(vib)   ...       0.00
freq.    1448.30  E(vib)   ...       0.00
freq.    1461.52  E(vib)   ...       0.00
freq.    1496.59  E(vib)   ...       0.00
freq.    1500.36  E(vib)   ...       0.00
freq.    1512.99  E(vib)   ...       0.00
freq.    1513.35  E(vib)   ...       0.00
freq.    1519.45  E(vib)   ...       0.00
freq.    1523.87  E(vib)   ...       0.00
freq.    1527.35  E(vib)   ...       0.00
freq.    1530.19  E(vib)   ...       0.00
freq.    1535.70  E(vib)   ...       0.00
freq.    1537.48  E(vib)   ...       0.00
freq.    1538.21  E(vib)   ...       0.00
freq.    1542.98  E(vib)   ...       0.00
freq.    1551.13  E(vib)   ...       0.00
freq.    1570.48  E(vib)   ...       0.00
freq.    1730.38  E(vib)   ...       0.00
freq.    1743.54  E(vib)   ...       0.00
freq.    3020.91  E(vib)   ...       0.00
freq.    3031.13  E(vib)   ...       0.00
freq.    3047.08  E(vib)   ...       0.00
freq.    3048.72  E(vib)   ...       0.00
freq.    3063.29  E(vib)   ...       0.00
freq.    3066.75  E(vib)   ...       0.00
freq.    3075.10  E(vib)   ...       0.00
freq.    3077.84  E(vib)   ...       0.00
freq.    3082.79  E(vib)   ...       0.00
freq.    3086.08  E(vib)   ...       0.00
freq.    3093.80  E(vib)   ...       0.00
freq.    3115.50  E(vib)   ...       0.00
freq.    3118.81  E(vib)   ...       0.00
freq.    3127.96  E(vib)   ...       0.00
freq.    3144.65  E(vib)   ...       0.00
freq.    3148.47  E(vib)   ...       0.00
freq.    3172.77  E(vib)   ...       0.00
freq.    3179.01  E(vib)   ...       0.00
freq.    3189.71  E(vib)   ...       0.00
freq.    3191.53  E(vib)   ...       0.00

------------
INNER ENERGY
------------

The inner energy is: U= E(el) + E(ZPE) + E(vib) + E(rot) + E(trans)
    E(el)   - is the total energy from the electronic structure calculation
              = E(kin-el) + E(nuc-el) + E(el-el) + E(nuc-nuc)
    E(ZPE)  - the the zero temperature vibrational energy from the frequency calculation
    E(vib)  - the the finite temperature correction to E(ZPE) due to population
              of excited vibrational states
    E(rot)  - is the rotational thermal energy
    E(trans)- is the translational thermal energy

Summary of contributions to the inner energy U:
Electronic energy                ...   -652.72319862 Eh
Zero point energy                ...      0.30199503 Eh     189.50 kcal/mol
Thermal vibrational correction   ...      0.01429327 Eh       8.97 kcal/mol
Thermal rotational correction    ...      0.00141627 Eh       0.89 kcal/mol
Thermal translational correction ...      0.00141627 Eh       0.89 kcal/mol
-----------------------------------------------------------------------
Total thermal energy                   -652.40407778 Eh

Summary of corrections to the electronic energy:
(perhaps to be used in another calculation)
Total thermal correction                  0.01712581 Eh      10.75 kcal/mol
Non-thermal (ZPE) correction              0.30199503 Eh     189.50 kcal/mol
-----------------------------------------------------------------------
Total correction                          0.31912084 Eh     200.25 kcal/mol

--------
ENTHALPY
--------

The enthalpy is H = U + kB*T
                kB is Boltzmann's constant
Total free energy                 ...   -652.40407778 Eh
Thermal Enthalpy correction       ...      0.00094421 Eh       0.59 kcal/mol
-----------------------------------------------------------------------
Total Enthalpy                    ...   -652.40313357 Eh

Note: Only C1 symmetry has been detected, increase convergence thresholds
      if your molecule has a higher symmetry. Symmetry factor of 1.0 is
      used for the rotational entropy correction.

Rotational constants in cm-1:     0.026249     0.019310     0.014165

                             ****ORCA TERMINATED NORMALLY****
TOTAL RUN TIME: 0 days 0 hours 27 minutes 37 seconds 747 msec
