                         Program Version 5.0.4 -  RELEASE  -
|  1> ! OPT FREQ B3LYP 6-31G(d) D4 AUTOAUX
|  2> ! CPCM
|  3>
|  4> %cpcm
|  5> epsilon 9.8629
|  6> refrac  1.4295
|  7> end
|  8>
|  9> %PAL NPROCS 4 END
| 10>
| 11> %maxcore 3375
| 12>
| 13> *xyzfile 0 1 /users/fjb15167/WWenergy/structures/Nl.xyz
| 14>
| 15>                          ****END OF INPUT****
 Total Charge           Charge          ....    0
 Multiplicity           Mult            ....    1
 Number of Electrons    NEL             ....  110
Dispersion correction           -0.057465491
FINAL SINGLE POINT ENERGY      -652.736261443199
Dispersion correction            ... Starting D4
Dispersion correction           -0.056955633
FINAL SINGLE POINT ENERGY      -652.736818994465
Dispersion correction            ... Starting D4
Dispersion correction           -0.057516372
FINAL SINGLE POINT ENERGY      -652.736730627073
Dispersion correction            ... Starting D4
FINAL SINGLE POINT ENERGY      -652.737001355586
FINAL SINGLE POINT ENERGY      -652.737020135691
Dispersion correction           -0.057241638
FINAL SINGLE POINT ENERGY      -652.737038822279
Dispersion correction            ... Starting D4
Dispersion correction           -0.057242183
FINAL SINGLE POINT ENERGY      -652.737042653912
Dispersion correction            ... Starting D4
                    ***********************HURRAY********************

CARTESIAN COORDINATES (ANGSTROEM)
---------------------------------
  C     -1.242252   -3.021086   -0.226850
  H     -0.315270   -3.135941   -0.798370
  H     -2.039973   -3.559681   -0.741133
  H     -1.086270   -3.477921    0.757448
  C     -1.683720   -1.571690   -0.095304
  O     -2.814003   -1.228580   -0.454236
  N     -0.809349   -0.656613    0.436582
  C      0.419798   -1.049065    1.131391
  H      0.256089   -1.041530    2.215359
  H      0.700634   -2.060940    0.843719
  C      1.580440   -0.071092    0.889889
  N      2.281985   -0.184157   -0.265842
  O      1.839859    0.778780    1.752214
  C      1.996565   -1.153114   -1.317577
  H      2.219682   -0.693345   -2.285275
  H      2.612045   -2.056198   -1.211900
  H      0.943792   -1.428455   -1.321602
  C      3.422505    0.692367   -0.506052
  H      3.215583    1.360186   -1.351668
  H      3.607003    1.284166    0.388790
  H      4.309883    0.093003   -0.741873
  C     -1.353308    0.676018    0.763804
  H     -0.663971    1.135505    1.477809
  C     -1.552516    1.620568   -0.433689
  H     -2.252037    1.132179   -1.121610
  C     -2.194898    2.920558    0.070489
  H     -2.399749    3.603015   -0.762715
  H     -3.142196    2.725654    0.588557
  H     -1.527874    3.439986    0.772042
  H     -2.316009    0.533862    1.268647
  C     -0.248958    1.908814   -1.185756
  H      0.494831    2.371683   -0.524153
  H      0.187463    0.994318   -1.597739
  H     -0.431805    2.597748   -2.019396

 Multiplicity           Mult            ....    1
 Number of Electrons    NEL             ....  110
 Basis Dimension        Dim             ....  236

ORBITAL ENERGIES
----------------

  NO   OCC          E(Eh)            E(eV)
   0   2.0000     -19.108702      -519.9742
   1   2.0000     -19.106686      -519.9194
   2   2.0000     -14.361825      -390.8051
   3   2.0000     -14.357779      -390.6950
   4   2.0000     -10.281454      -279.7726
   5   2.0000     -10.280696      -279.7520
   6   2.0000     -10.218350      -278.0554
   7   2.0000     -10.206107      -277.7223
   8   2.0000     -10.197870      -277.4982
   9   2.0000     -10.197541      -277.4892
  10   2.0000     -10.174377      -276.8589
  11   2.0000     -10.171383      -276.7774
  12   2.0000     -10.155857      -276.3549
  13   2.0000     -10.153339      -276.2864
  14   2.0000      -1.031527       -28.0693
  15   2.0000      -1.026035       -27.9198
  16   2.0000      -0.933065       -25.3900
  17   2.0000      -0.925713       -25.1899
  18   2.0000      -0.793384       -21.5891
  19   2.0000      -0.742635       -20.2081
  20   2.0000      -0.735799       -20.0221
  21   2.0000      -0.714289       -19.4368
  22   2.0000      -0.681873       -18.5547
  23   2.0000      -0.672675       -18.3044
  24   2.0000      -0.664917       -18.0933
  25   2.0000      -0.572793       -15.5865
  26   2.0000      -0.544041       -14.8041
  27   2.0000      -0.529655       -14.4126
  28   2.0000      -0.505403       -13.7527
  29   2.0000      -0.495771       -13.4906
  30   2.0000      -0.479059       -13.0359
  31   2.0000      -0.468845       -12.7579
  32   2.0000      -0.456176       -12.4132
  33   2.0000      -0.445855       -12.1323
  34   2.0000      -0.438626       -11.9356
  35   2.0000      -0.423532       -11.5249
  36   2.0000      -0.409735       -11.1494
  37   2.0000      -0.406924       -11.0730
  38   2.0000      -0.400382       -10.8949
  39   2.0000      -0.398663       -10.8482
  40   2.0000      -0.397255       -10.8098
  41   2.0000      -0.392693       -10.6857
  42   2.0000      -0.378135       -10.2896
  43   2.0000      -0.375355       -10.2139
  44   2.0000      -0.373417       -10.1612
  45   2.0000      -0.368245       -10.0205
  46   2.0000      -0.360072        -9.7981
  47   2.0000      -0.350297        -9.5321
  48   2.0000      -0.324382        -8.8269
  49   2.0000      -0.323392        -8.7999
  50   2.0000      -0.313851        -8.5403
  51   2.0000      -0.259471        -7.0606
  52   2.0000      -0.246326        -6.7029
  53   2.0000      -0.239570        -6.5190
  54   2.0000      -0.233951        -6.3661
  55   0.0000       0.015496         0.4217
  56   0.0000       0.025697         0.6992
  57   0.0000       0.085779         2.3342
  58   0.0000       0.106982         2.9111
  59   0.0000       0.112694         3.0666

MULLIKEN ATOMIC CHARGES
-----------------------
   0 C :   -0.571512
   1 H :    0.191805
   2 H :    0.182839
   3 H :    0.194200
   4 C :    0.529550
   5 O :   -0.524903
   6 N :   -0.385679
   7 C :   -0.251885
   8 H :    0.184794
   9 H :    0.199781
  10 C :    0.536964
  11 N :   -0.357638
  12 O :   -0.538179
  13 C :   -0.341151
  14 H :    0.183906
  15 H :    0.177780
  16 H :    0.185123
  17 C :   -0.333236
  18 H :    0.173774
  19 H :    0.188295
  20 H :    0.172894
  21 C :   -0.143866
  22 H :    0.160221
  23 C :   -0.065544
  24 H :    0.140964
  25 C :   -0.459943
  26 H :    0.148044
  27 H :    0.147142
  28 H :    0.144717
  29 H :    0.154301
  30 C :   -0.468151
  31 H :    0.145136
  32 H :    0.155211
  33 H :    0.144244
Sum of atomic charges:   -0.0000000

LOEWDIN ATOMIC CHARGES
----------------------
   0 C :   -0.397916
   1 H :    0.150198
   2 H :    0.151224
   3 H :    0.155563
   4 C :    0.112647
   5 O :   -0.323800
   6 N :   -0.079452
   7 C :   -0.176231
   8 H :    0.144766
   9 H :    0.155119
  10 C :    0.098436
  11 N :   -0.065320
  12 O :   -0.334071
  13 C :   -0.280306
  14 H :    0.144541
  15 H :    0.135460
  16 H :    0.142059
  17 C :   -0.279516
  18 H :    0.134743
  19 H :    0.149167
  20 H :    0.135812
  21 C :   -0.153105
  22 H :    0.135102
  23 C :   -0.132685
  24 H :    0.125207
  25 C :   -0.361851
  26 H :    0.127100
  27 H :    0.125335
  28 H :    0.123542
  29 H :    0.130515
  30 C :   -0.368303
  31 H :    0.123701
  32 H :    0.126907
  33 H :    0.125412

  Mayer bond orders larger than 0.100000
B(  0-C ,  1-H ) :   0.9171 B(  0-C ,  2-H ) :   0.9376 B(  0-C ,  3-H ) :   0.9225
B(  0-C ,  4-C ) :   0.9899 B(  4-C ,  5-O ) :   1.7919 B(  4-C ,  6-N ) :   1.1466
B(  6-N ,  7-C ) :   0.9540 B(  6-N , 21-C ) :   0.9108 B(  7-C ,  8-H ) :   0.9138
B(  7-C ,  9-H ) :   0.9018 B(  7-C , 10-C ) :   0.9346 B( 10-C , 11-N ) :   1.2028
B( 10-C , 12-O ) :   1.7351 B( 11-N , 12-O ) :   0.1050 B( 11-N , 13-C ) :   0.9454
B( 11-N , 17-C ) :   0.9467 B( 13-C , 14-H ) :   0.9339 B( 13-C , 15-H ) :   0.9312
B( 13-C , 16-H ) :   0.9182 B( 17-C , 18-H ) :   0.9341 B( 17-C , 19-H ) :   0.9242
B( 17-C , 20-H ) :   0.9377 B( 21-C , 22-H ) :   0.9137 B( 21-C , 23-C ) :   0.9924
B( 21-C , 29-H ) :   0.9241 B( 23-C , 24-H ) :   0.9239 B( 23-C , 25-C ) :   1.0054
B( 23-C , 30-C ) :   1.0131 B( 25-C , 26-H ) :   0.9489 B( 25-C , 27-H ) :   0.9474
B( 25-C , 28-H ) :   0.9469 B( 30-C , 31-H ) :   0.9434 B( 30-C , 32-H ) :   0.9394
B( 30-C , 33-H ) :   0.9487

Dispersion correction           -0.057257150
FINAL SINGLE POINT ENERGY      -652.737046006719

DIPOLE MOMENT
-------------
                                X             Y             Z
Electronic contribution:     -0.81812      -5.10949       5.45565
Nuclear contribution   :      2.48676       3.91622      -6.32876
                        -----------------------------------------
Total Dipole Moment    :      1.66865      -1.19328      -0.87311
                        -----------------------------------------
Magnitude (a.u.)       :      2.22949
Magnitude (Debye)      :      5.66690

Dispersion correction in the Hessian             ... Starting D4

VIBRATIONAL FREQUENCIES
-----------------------

Scaling factor for frequencies =  1.000000000  (already applied!)

   0:         0.00 cm**-1
   1:         0.00 cm**-1
   2:         0.00 cm**-1
   3:         0.00 cm**-1
   4:         0.00 cm**-1
   5:         0.00 cm**-1
   6:        22.63 cm**-1
   7:        49.25 cm**-1
   8:        64.46 cm**-1
   9:        70.06 cm**-1
  10:        78.47 cm**-1
  11:        96.25 cm**-1
  12:       111.06 cm**-1
  13:       122.40 cm**-1
  14:       154.34 cm**-1
  15:       183.28 cm**-1
  16:       186.93 cm**-1
  17:       229.36 cm**-1
  18:       238.48 cm**-1
  19:       248.30 cm**-1
  20:       273.16 cm**-1
  21:       298.47 cm**-1
  22:       324.56 cm**-1
  23:       345.73 cm**-1
  24:       372.04 cm**-1
  25:       414.21 cm**-1
  26:       416.43 cm**-1
  27:       428.86 cm**-1
  28:       461.11 cm**-1
  29:       514.67 cm**-1
  30:       562.92 cm**-1
  31:       611.74 cm**-1
  32:       631.11 cm**-1
  33:       707.95 cm**-1
  34:       771.90 cm**-1
  35:       821.51 cm**-1
  36:       827.29 cm**-1
  37:       908.81 cm**-1
  38:       937.94 cm**-1
  39:       948.88 cm**-1
  40:       975.46 cm**-1
  41:       981.55 cm**-1
  42:      1000.67 cm**-1
  43:      1006.04 cm**-1
  44:      1062.31 cm**-1
  45:      1083.79 cm**-1
  46:      1087.98 cm**-1
  47:      1132.90 cm**-1
  48:      1147.11 cm**-1
  49:      1155.64 cm**-1
  50:      1176.98 cm**-1
  51:      1200.43 cm**-1
  52:      1203.99 cm**-1
  53:      1241.50 cm**-1
  54:      1271.22 cm**-1
  55:      1294.18 cm**-1
  56:      1330.21 cm**-1
  57:      1349.46 cm**-1
  58:      1383.60 cm**-1
  59:      1394.80 cm**-1
  60:      1405.10 cm**-1
  61:      1420.14 cm**-1
  62:      1422.79 cm**-1
  63:      1436.84 cm**-1
  64:      1441.33 cm**-1
  65:      1454.51 cm**-1
  66:      1468.18 cm**-1
  67:      1487.52 cm**-1
  68:      1490.09 cm**-1
  69:      1500.64 cm**-1
  70:      1504.33 cm**-1
  71:      1507.85 cm**-1
  72:      1509.14 cm**-1
  73:      1510.91 cm**-1
  74:      1515.14 cm**-1
  75:      1516.08 cm**-1
  76:      1519.85 cm**-1
  77:      1526.84 cm**-1
  78:      1532.86 cm**-1
  79:      1553.22 cm**-1
  80:      1715.05 cm**-1
  81:      1722.22 cm**-1
  82:      3031.17 cm**-1
  83:      3041.95 cm**-1
  84:      3042.75 cm**-1
  85:      3048.33 cm**-1
  86:      3059.39 cm**-1
  87:      3061.46 cm**-1
  88:      3066.59 cm**-1
  89:      3068.02 cm**-1
  90:      3094.18 cm**-1
  91:      3098.42 cm**-1
  92:      3101.69 cm**-1
  93:      3107.01 cm**-1
  94:      3115.19 cm**-1
  95:      3124.45 cm**-1
  96:      3125.37 cm**-1
  97:      3133.69 cm**-1
  98:      3166.08 cm**-1
  99:      3174.76 cm**-1
 100:      3195.11 cm**-1
 101:      3199.34 cm**-1

IR SPECTRUM
-----------

 Mode   freq       eps      Int      T**2         TX        TY        TZ
       cm**-1   L/(mol*cm) km/mol    a.u.
----------------------------------------------------------------------------
  6:     22.63   0.000374    1.89  0.005154  ( 0.044702 -0.052389  0.020286)
  7:     49.25   0.000214    1.08  0.001353  (-0.036465  0.004625  0.001542)
  8:     64.46   0.001321    6.68  0.006397  (-0.048358  0.040075 -0.049521)
  9:     70.06   0.001013    5.12  0.004513  ( 0.046340 -0.006015 -0.048259)
 10:     78.47   0.001253    6.33  0.004982  (-0.057892  0.006928  0.039777)
 11:     96.25   0.000626    3.17  0.002031  (-0.019179 -0.017187  0.036987)
 12:    111.06   0.000226    1.14  0.000636  (-0.008789 -0.021649 -0.009489)
 13:    122.40   0.000219    1.11  0.000558  (-0.001957  0.020873 -0.010881)
 14:    154.34   0.000638    3.23  0.001291  ( 0.024078 -0.021227  0.016144)
 15:    183.28   0.000465    2.35  0.000791  (-0.008763  0.023453 -0.012810)
 16:    186.93   0.000131    0.66  0.000218  (-0.007769  0.010400  0.007034)
 17:    229.36   0.000336    1.70  0.000457  ( 0.003038  0.021167 -0.000332)
 18:    238.48   0.001047    5.29  0.001370  (-0.000623  0.036990 -0.001186)
 19:    248.30   0.001816    9.17  0.002282  ( 0.043604 -0.009899  0.016807)
 20:    273.16   0.000300    1.51  0.000342  ( 0.017486  0.005443  0.002622)
 21:    298.47   0.000879    4.44  0.000919  ( 0.002798 -0.029963  0.003672)
 22:    324.56   0.000564    2.85  0.000543  ( 0.013391  0.010092 -0.016171)
 23:    345.73   0.004536   22.92  0.004095  ( 0.045363  0.039912 -0.021070)
 24:    372.04   0.001366    6.90  0.001145  ( 0.014428 -0.014413 -0.027011)
 25:    414.21   0.000387    1.96  0.000292  ( 0.012758 -0.001308  0.011288)
 26:    416.43   0.000652    3.30  0.000489  ( 0.020047  0.000409 -0.009311)
 27:    428.86   0.001564    7.90  0.001138  ( 0.022006  0.025563  0.000273)
 28:    461.11   0.001035    5.23  0.000700  (-0.018754 -0.015148 -0.010915)
 29:    514.67   0.002546   12.86  0.001543  (-0.011263  0.034263 -0.015577)
 30:    562.92   0.003872   19.57  0.002147  (-0.016133 -0.014668 -0.040882)
 31:    611.74   0.001262    6.38  0.000644  ( 0.011248  0.003812 -0.022426)
 32:    631.11   0.006569   33.20  0.003248  (-0.048835 -0.011045  0.027223)
 33:    707.95   0.003015   15.24  0.001329  ( 0.001638  0.036417  0.000004)
 34:    771.90   0.000794    4.01  0.000321  ( 0.017407 -0.004015 -0.001308)
 35:    821.51   0.005019   25.36  0.001906  (-0.032485  0.006061  0.028538)
 36:    827.29   0.001241    6.27  0.000468  (-0.019831  0.008568 -0.001249)
 37:    908.81   0.000444    2.24  0.000152  ( 0.004690 -0.010641 -0.004152)
 38:    937.94   0.000613    3.10  0.000204  (-0.005247  0.012830  0.003441)
 39:    948.88   0.000465    2.35  0.000153  (-0.009728 -0.000339  0.007634)
 40:    975.46   0.000733    3.70  0.000235  ( 0.001181  0.015113 -0.002174)
 41:    981.55   0.001973    9.97  0.000627  ( 0.007591  0.023239  0.005440)
 42:   1000.67   0.002892   14.62  0.000902  ( 0.028655  0.007532  0.004904)
 43:   1006.04   0.011475   57.99  0.003559  (-0.045887 -0.019647  0.032675)
 44:   1062.31   0.002354   11.90  0.000692  (-0.012835 -0.008436  0.021345)
 45:   1083.79   0.006396   32.32  0.001842  ( 0.019359  0.024686  0.029281)
 46:   1087.98   0.001936    9.78  0.000555  (-0.004793  0.010248 -0.020670)
 47:   1132.90   0.000930    4.70  0.000256  (-0.004220  0.009228  0.012378)
 48:   1147.11   0.008226   41.57  0.002238  (-0.031948  0.033579  0.009471)
 49:   1155.64   0.004785   24.18  0.001292  (-0.025313  0.018131  0.017964)
 50:   1176.98   0.001552    7.84  0.000411  ( 0.012667  0.000471  0.015834)
 51:   1200.43   0.010956   55.37  0.002848  ( 0.015919 -0.009459 -0.050053)
 52:   1203.99   0.002291   11.58  0.000594  ( 0.007065  0.011809 -0.020109)
 53:   1241.50   0.003561   17.99  0.000895  (-0.013821  0.026366 -0.002974)
 54:   1271.22   0.035968  181.77  0.008830  ( 0.059238  0.065017  0.033065)
 55:   1294.18   0.015949   80.60  0.003846  ( 0.046775  0.038109 -0.014337)
 56:   1330.21   0.005996   30.30  0.001407  ( 0.011773  0.035586 -0.001260)
 57:   1349.46   0.000177    0.90  0.000041  ( 0.003846  0.004000  0.003195)
 58:   1383.60   0.006614   33.43  0.001492  ( 0.006273  0.038111 -0.000077)
 59:   1394.80   0.003405   17.21  0.000762  ( 0.016065  0.019357  0.011363)
 60:   1405.10   0.007386   37.32  0.001640  (-0.036476 -0.015683 -0.007990)
 61:   1420.14   0.008005   40.45  0.001759  ( 0.007867  0.041067  0.003267)
 62:   1422.79   0.003465   17.51  0.000760  (-0.022306 -0.015334  0.005221)
 63:   1436.84   0.012815   64.76  0.002783  ( 0.038272  0.034118 -0.012428)
 64:   1441.33   0.011965   60.46  0.002590  (-0.018710  0.018737  0.043467)
 65:   1454.51   0.012315   62.23  0.002642  (-0.043141 -0.020511  0.018980)
 66:   1468.18   0.026117  131.99  0.005551  (-0.025929 -0.058755 -0.037771)
 67:   1487.52   0.001037    5.24  0.000217  ( 0.013489  0.005882 -0.000955)
 68:   1490.09   0.003625   18.32  0.000759  (-0.021567  0.010640 -0.013450)
 69:   1500.64   0.001922    9.71  0.000400  (-0.005316 -0.008999  0.017043)
 70:   1504.33   0.002661   13.45  0.000552  (-0.014432 -0.017431  0.006313)
 71:   1507.85   0.002103   10.63  0.000435  (-0.011059  0.013469  0.011470)
 72:   1509.14   0.000761    3.85  0.000157  (-0.009529  0.008124 -0.000778)
 73:   1510.91   0.002646   13.37  0.000547  ( 0.009764  0.005477  0.020524)
 74:   1515.14   0.002029   10.25  0.000418  ( 0.002236 -0.000632 -0.020309)
 75:   1516.08   0.007076   35.76  0.001456  ( 0.009743 -0.033859 -0.014667)
 76:   1519.85   0.000965    4.88  0.000198  ( 0.005319  0.012341  0.004192)
 77:   1526.84   0.004694   23.72  0.000959  ( 0.011206 -0.000723  0.028867)
 78:   1532.86   0.000638    3.23  0.000130  ( 0.010744  0.000063  0.003810)
 79:   1553.22   0.014813   74.86  0.002976  ( 0.038333  0.006841 -0.038208)
 80:   1715.05   0.118878  600.76  0.021631  ( 0.017775  0.070464  0.127865)
 81:   1722.22   0.084382  426.43  0.015290  ( 0.121244 -0.022022  0.010242)
 82:   3031.17   0.007302   36.90  0.000752  (-0.012183  0.020723  0.013185)
 83:   3041.95   0.005668   28.64  0.000581  ( 0.018541  0.010814 -0.010989)
 84:   3042.75   0.010679   53.97  0.001095  (-0.013794 -0.029808  0.004061)
 85:   3048.33   0.015821   79.95  0.001620  (-0.024859  0.012218  0.029196)
 86:   3059.39   0.007239   36.58  0.000738  (-0.017965  0.011474  0.016851)
 87:   3061.46   0.001047    5.29  0.000107  (-0.006404  0.007859  0.002000)
 88:   3066.59   0.009733   49.19  0.000991  ( 0.005201 -0.005684  0.030515)
 89:   3068.02   0.001135    5.74  0.000115  ( 0.001244 -0.009223 -0.005368)
 90:   3094.18   0.005502   27.81  0.000555  ( 0.021605  0.009285 -0.001391)
 91:   3098.42   0.010180   51.45  0.001025  ( 0.021418 -0.019679  0.013390)
 92:   3101.69   0.010579   53.46  0.001064  (-0.026626 -0.003760 -0.018473)
 93:   3107.01   0.015911   80.41  0.001598  ( 0.002677 -0.016065  0.036508)
 94:   3115.19   0.003935   19.89  0.000394  ( 0.002858 -0.011171  0.016164)
 95:   3124.45   0.002239   11.31  0.000224  (-0.007366 -0.001346  0.012943)
 96:   3125.37   0.005900   29.82  0.000589  (-0.022287 -0.005080 -0.008163)
 97:   3133.69   0.010147   51.28  0.001010  ( 0.003927 -0.029304 -0.011676)
 98:   3166.08   0.003238   16.36  0.000319  ( 0.011500  0.010947  0.008190)
 99:   3174.76   0.002394   12.10  0.000235  (-0.013348  0.006511  0.003839)
100:   3195.11   0.000534    2.70  0.000052  ( 0.004086  0.004478  0.003924)
101:   3199.34   0.002000   10.11  0.000195  ( 0.011874  0.006028  0.004211)

--------------------------
THERMOCHEMISTRY AT 298.15K
--------------------------

Temperature         ... 298.15 K
Pressure            ... 1.00 atm
Total Mass          ... 200.28 AMU

Throughout the following assumptions are being made:
  (1) The electronic state is orbitally nondegenerate
  (2) There are no thermally accessible electronically excited states
  (3) Hindered rotations indicated by low frequency modes are not
      treated as such but are treated as vibrations and this may
      cause some error
  (4) All equations used are the standard statistical mechanics
      equations for an ideal gas
  (5) All vibrations are strictly harmonic

freq.      22.63  E(vib)   ...       0.56
freq.      49.25  E(vib)   ...       0.52
freq.      64.46  E(vib)   ...       0.51
freq.      70.06  E(vib)   ...       0.50
freq.      78.47  E(vib)   ...       0.49
freq.      96.25  E(vib)   ...       0.47
freq.     111.06  E(vib)   ...       0.45
freq.     122.40  E(vib)   ...       0.43
freq.     154.34  E(vib)   ...       0.40
freq.     183.28  E(vib)   ...       0.37
freq.     186.93  E(vib)   ...       0.36
freq.     229.36  E(vib)   ...       0.32
freq.     238.48  E(vib)   ...       0.32
freq.     248.30  E(vib)   ...       0.31
freq.     273.16  E(vib)   ...       0.29
freq.     298.47  E(vib)   ...       0.26
freq.     324.56  E(vib)   ...       0.24
freq.     345.73  E(vib)   ...       0.23
freq.     372.04  E(vib)   ...       0.21
freq.     414.21  E(vib)   ...       0.19
freq.     416.43  E(vib)   ...       0.18
freq.     428.86  E(vib)   ...       0.18
freq.     461.11  E(vib)   ...       0.16
freq.     514.67  E(vib)   ...       0.13
freq.     562.92  E(vib)   ...       0.11
freq.     611.74  E(vib)   ...       0.10
freq.     631.11  E(vib)   ...       0.09
freq.     707.95  E(vib)   ...       0.07
freq.     771.90  E(vib)   ...       0.05
freq.     821.51  E(vib)   ...       0.05
freq.     827.29  E(vib)   ...       0.04
freq.     908.81  E(vib)   ...       0.03
freq.     937.94  E(vib)   ...       0.03
freq.     948.88  E(vib)   ...       0.03
freq.     975.46  E(vib)   ...       0.03
freq.     981.55  E(vib)   ...       0.02
freq.    1000.67  E(vib)   ...       0.02
freq.    1006.04  E(vib)   ...       0.02
freq.    1062.31  E(vib)   ...       0.02
freq.    1083.79  E(vib)   ...       0.02
freq.    1087.98  E(vib)   ...       0.02
freq.    1132.90  E(vib)   ...       0.01
freq.    1147.11  E(vib)   ...       0.01
freq.    1155.64  E(vib)   ...       0.01
freq.    1176.98  E(vib)   ...       0.01
freq.    1200.43  E(vib)   ...       0.01
freq.    1203.99  E(vib)   ...       0.01
freq.    1241.50  E(vib)   ...       0.01
freq.    1271.22  E(vib)   ...       0.01
freq.    1294.18  E(vib)   ...       0.01
freq.    1330.21  E(vib)   ...       0.01
freq.    1349.46  E(vib)   ...       0.01
freq.    1383.60  E(vib)   ...       0.00
freq.    1394.80  E(vib)   ...       0.00
freq.    1405.10  E(vib)   ...       0.00
freq.    1420.14  E(vib)   ...       0.00
freq.    1422.79  E(vib)   ...       0.00
freq.    1436.84  E(vib)   ...       0.00
freq.    1441.33  E(vib)   ...       0.00
freq.    1454.51  E(vib)   ...       0.00
freq.    1468.18  E(vib)   ...       0.00
freq.    1487.52  E(vib)   ...       0.00
freq.    1490.09  E(vib)   ...       0.00
freq.    1500.64  E(vib)   ...       0.00
freq.    1504.33  E(vib)   ...       0.00
freq.    1507.85  E(vib)   ...       0.00
freq.    1509.14  E(vib)   ...       0.00
freq.    1510.91  E(vib)   ...       0.00
freq.    1515.14  E(vib)   ...       0.00
freq.    1516.08  E(vib)   ...       0.00
freq.    1519.85  E(vib)   ...       0.00
freq.    1526.84  E(vib)   ...       0.00
freq.    1532.86  E(vib)   ...       0.00
freq.    1553.22  E(vib)   ...       0.00
freq.    1715.05  E(vib)   ...       0.00
freq.    1722.22  E(vib)   ...       0.00
freq.    3031.17  E(vib)   ...       0.00
freq.    3041.95  E(vib)   ...       0.00
freq.    3042.75  E(vib)   ...       0.00
freq.    3048.33  E(vib)   ...       0.00
freq.    3059.39  E(vib)   ...       0.00
freq.    3061.46  E(vib)   ...       0.00
freq.    3066.59  E(vib)   ...       0.00
freq.    3068.02  E(vib)   ...       0.00
freq.    3094.18  E(vib)   ...       0.00
freq.    3098.42  E(vib)   ...       0.00
freq.    3101.69  E(vib)   ...       0.00
freq.    3107.01  E(vib)   ...       0.00
freq.    3115.19  E(vib)   ...       0.00
freq.    3124.45  E(vib)   ...       0.00
freq.    3125.37  E(vib)   ...       0.00
freq.    3133.69  E(vib)   ...       0.00
freq.    3166.08  E(vib)   ...       0.00
freq.    3174.76  E(vib)   ...       0.00
freq.    3195.11  E(vib)   ...       0.00
freq.    3199.34  E(vib)   ...       0.00

------------
INNER ENERGY
------------

The inner energy is: U= E(el) + E(ZPE) + E(vib) + E(rot) + E(trans)
    E(el)   - is the total energy from the electronic structure calculation
              = E(kin-el) + E(nuc-el) + E(el-el) + E(nuc-nuc)
    E(ZPE)  - the the zero temperature vibrational energy from the frequency calculation
    E(vib)  - the the finite temperature correction to E(ZPE) due to population
              of excited vibrational states
    E(rot)  - is the rotational thermal energy
    E(trans)- is the translational thermal energy

Summary of contributions to the inner energy U:
Electronic energy                ...   -652.73704601 Eh
Zero point energy                ...      0.30101408 Eh     188.89 kcal/mol
Thermal vibrational correction   ...      0.01437062 Eh       9.02 kcal/mol
Thermal rotational correction    ...      0.00141627 Eh       0.89 kcal/mol
Thermal translational correction ...      0.00141627 Eh       0.89 kcal/mol
-----------------------------------------------------------------------
Total thermal energy                   -652.41882877 Eh

Summary of corrections to the electronic energy:
(perhaps to be used in another calculation)
Total thermal correction                  0.01720316 Eh      10.80 kcal/mol
Non-thermal (ZPE) correction              0.30101408 Eh     188.89 kcal/mol
-----------------------------------------------------------------------
Total correction                          0.31821724 Eh     199.68 kcal/mol

--------
ENTHALPY
--------

The enthalpy is H = U + kB*T
                kB is Boltzmann's constant
Total free energy                 ...   -652.41882877 Eh
Thermal Enthalpy correction       ...      0.00094421 Eh       0.59 kcal/mol
-----------------------------------------------------------------------
Total Enthalpy                    ...   -652.41788456 Eh

Note: Only C1 symmetry has been detected, increase convergence thresholds
      if your molecule has a higher symmetry. Symmetry factor of 1.0 is
      used for the rotational entropy correction.

Rotational constants in cm-1:     0.025540     0.018720     0.013659

                             ****ORCA TERMINATED NORMALLY****
TOTAL RUN TIME: 0 days 0 hours 22 minutes 4 seconds 38 msec
