                         Program Version 5.0.4 -  RELEASE  -
|  1> ! OPT FREQ B3LYP 6-31G(d) D4 AUTOAUX
|  2>
|  3> %PAL NPROCS 4 END
|  4>
|  5> %maxcore 3375
|  6>
|  7> *xyzfile 0 1 /users/fjb15167/WWenergy/structures/Nfe.xyz
|  8>
|  9>                          ****END OF INPUT****
 Total Charge           Charge          ....    0
 Multiplicity           Mult            ....    1
 Number of Electrons    NEL             ....  134
Dispersion correction           -0.071779314
FINAL SINGLE POINT ENERGY      -805.072847838844
Dispersion correction            ... Starting D4
Dispersion correction           -0.071017321
FINAL SINGLE POINT ENERGY      -805.073251032507
Dispersion correction            ... Starting D4
Dispersion correction           -0.071225286
FINAL SINGLE POINT ENERGY      -805.073333804781
Dispersion correction            ... Starting D4
FINAL SINGLE POINT ENERGY      -805.073378162209
FINAL SINGLE POINT ENERGY      -805.073391137689
FINAL SINGLE POINT ENERGY      -805.073403932310
FINAL SINGLE POINT ENERGY      -805.073413843078
FINAL SINGLE POINT ENERGY      -805.073422444240
FINAL SINGLE POINT ENERGY      -805.073420849355
FINAL SINGLE POINT ENERGY      -805.073425886045
Dispersion correction           -0.070962503
FINAL SINGLE POINT ENERGY      -805.073437091874
Dispersion correction            ... Starting D4
Dispersion correction           -0.070938889
FINAL SINGLE POINT ENERGY      -805.073435307042
Dispersion correction            ... Starting D4
                    ***********************HURRAY********************

CARTESIAN COORDINATES (ANGSTROEM)
---------------------------------
  C     -1.529489    3.235265   -0.380349
  H     -0.770595    3.011559   -1.136958
  H     -1.037929    3.784887    0.430968
  H     -2.300229    3.868942   -0.820546
  C     -2.211554    1.978675    0.138666
  O     -3.434976    1.853242    0.078812
  N     -1.406062    1.008948    0.681495
  C     -2.022473   -0.167407    1.293213
  H     -1.708480   -0.236269    2.339633
  H     -3.102400   -0.029949    1.253700
  C      0.056526    1.063518    0.708129
  H      0.391902    2.087469    0.897403
  H      0.382907    0.459166    1.558855
  C      0.730693    0.517950   -0.570664
  H      0.239981   -0.417437   -0.853800
  H      0.581315    1.221495   -1.398572
  C      2.202716    0.275123   -0.338929
  C      2.612506   -0.874134    0.353226
  C      3.169091    1.197735   -0.752682
  C      3.963375   -1.092891    0.619951
  H      1.861515   -1.589967    0.681222
  C      4.522438    0.979884   -0.486380
  H      2.859953    2.091317   -1.291717
  C      4.922376   -0.166657    0.201100
  H      4.269155   -1.988922    1.154142
  H      5.262642    1.704013   -0.817335
  H      5.975340   -0.338791    0.408551
  C     -1.540050   -1.472771    0.645052
  N     -2.101844   -1.858084   -0.538756
  O     -0.635236   -2.109094    1.189898
  C     -3.120856   -1.128047   -1.279762
  H     -2.733315   -0.849717   -2.269680
  H     -4.001349   -1.766669   -1.431884
  H     -3.430831   -0.216712   -0.770658
  C     -1.615692   -3.070686   -1.181698
  H     -1.132432   -2.831408   -2.139056
  H     -0.895972   -3.550282   -0.519856
  H     -2.452669   -3.752292   -1.379731

 Multiplicity           Mult            ....    1
 Number of Electrons    NEL             ....  134
 Basis Dimension        Dim             ....  292

ORBITAL ENERGIES
----------------

  NO   OCC          E(Eh)            E(eV)
   0   2.0000     -19.107885      -519.9520
   1   2.0000     -19.106193      -519.9059
   2   2.0000     -14.362453      -390.8222
   3   2.0000     -14.362411      -390.8211
   4   2.0000     -10.284060      -279.8435
   5   2.0000     -10.279724      -279.7255
   6   2.0000     -10.218441      -278.0579
   7   2.0000     -10.214432      -277.9488
   8   2.0000     -10.206418      -277.7308
   9   2.0000     -10.203534      -277.6523
  10   2.0000     -10.184623      -277.1377
  11   2.0000     -10.183615      -277.1102
  12   2.0000     -10.182647      -277.0839
  13   2.0000     -10.177581      -276.9460
  14   2.0000     -10.176836      -276.9258
  15   2.0000     -10.176001      -276.9031
  16   2.0000     -10.175490      -276.8892
  17   2.0000     -10.170842      -276.7627
  18   2.0000      -1.034004       -28.1367
  19   2.0000      -1.026789       -27.9403
  20   2.0000      -0.935987       -25.4695
  21   2.0000      -0.930589       -25.3226
  22   2.0000      -0.848511       -23.0892
  23   2.0000      -0.785176       -21.3657
  24   2.0000      -0.761543       -20.7226
  25   2.0000      -0.735549       -20.0153
  26   2.0000      -0.728722       -19.8295
  27   2.0000      -0.718791       -19.5593
  28   2.0000      -0.708205       -19.2712
  29   2.0000      -0.675283       -18.3754
  30   2.0000      -0.646884       -17.6026
  31   2.0000      -0.597636       -16.2625
  32   2.0000      -0.574872       -15.6431
  33   2.0000      -0.555669       -15.1205
  34   2.0000      -0.540819       -14.7164
  35   2.0000      -0.516855       -14.0643
  36   2.0000      -0.504210       -13.7202
  37   2.0000      -0.486119       -13.2280
  38   2.0000      -0.483748       -13.1634
  39   2.0000      -0.470038       -12.7904
  40   2.0000      -0.459834       -12.5127
  41   2.0000      -0.455491       -12.3945
  42   2.0000      -0.454563       -12.3693
  43   2.0000      -0.443675       -12.0730
  44   2.0000      -0.420556       -11.4439
  45   2.0000      -0.417473       -11.3600
  46   2.0000      -0.410666       -11.1748
  47   2.0000      -0.407570       -11.0905
  48   2.0000      -0.403934       -10.9916
  49   2.0000      -0.401801       -10.9336
  50   2.0000      -0.398936       -10.8556
  51   2.0000      -0.396302       -10.7839
  52   2.0000      -0.392362       -10.6767
  53   2.0000      -0.383335       -10.4311
  54   2.0000      -0.376726       -10.2512
  55   2.0000      -0.367545       -10.0014
  56   2.0000      -0.356102        -9.6900
  57   2.0000      -0.349858        -9.5201
  58   2.0000      -0.346125        -9.4185
  59   2.0000      -0.332081        -9.0364
  60   2.0000      -0.327529        -8.9125
  61   2.0000      -0.258803        -7.0424
  62   2.0000      -0.250310        -6.8113
  63   2.0000      -0.242904        -6.6098
  64   2.0000      -0.240683        -6.5493
  65   2.0000      -0.239921        -6.5286
  66   2.0000      -0.228928        -6.2295
  67   0.0000       0.003592         0.0977
  68   0.0000       0.006879         0.1872
  69   0.0000       0.014344         0.3903
  70   0.0000       0.028438         0.7738
  71   0.0000       0.077319         2.1040

MULLIKEN ATOMIC CHARGES
-----------------------
   0 C :   -0.551323
   1 H :    0.170017
   2 H :    0.175433
   3 H :    0.188089
   4 C :    0.524289
   5 O :   -0.478268
   6 N :   -0.374015
   7 C :   -0.245593
   8 H :    0.175078
   9 H :    0.199884
  10 C :   -0.158364
  11 H :    0.156052
  12 H :    0.182674
  13 C :   -0.361251
  14 H :    0.170734
  15 H :    0.139725
  16 C :    0.152254
  17 C :   -0.191966
  18 C :   -0.180585
  19 C :   -0.130817
  20 H :    0.168151
  21 C :   -0.127627
  22 H :    0.114951
  23 C :   -0.127374
  24 H :    0.129709
  25 H :    0.125154
  26 H :    0.125593
  27 C :    0.519984
  28 N :   -0.365188
  29 O :   -0.486131
  30 C :   -0.351440
  31 H :    0.152746
  32 H :    0.155160
  33 H :    0.218948
  34 C :   -0.323825
  35 H :    0.152323
  36 H :    0.202463
  37 H :    0.154357
Sum of atomic charges:   -0.0000000

LOEWDIN ATOMIC CHARGES
----------------------
   0 C :   -0.389382
   1 H :    0.141059
   2 H :    0.145813
   3 H :    0.153065
   4 C :    0.109297
   5 O :   -0.289678
   6 N :   -0.076845
   7 C :   -0.177783
   8 H :    0.141902
   9 H :    0.157014
  10 C :   -0.156333
  11 H :    0.130827
  12 H :    0.144196
  13 C :   -0.235767
  14 H :    0.139871
  15 H :    0.121558
  16 C :   -0.022789
  17 C :   -0.134930
  18 C :   -0.139446
  19 C :   -0.126684
  20 H :    0.146145
  21 C :   -0.130245
  22 H :    0.124704
  23 C :   -0.133368
  24 H :    0.131501
  25 H :    0.129530
  26 H :    0.129752
  27 C :    0.093941
  28 N :   -0.078205
  29 O :   -0.295219
  30 C :   -0.287800
  31 H :    0.124387
  32 H :    0.125495
  33 H :    0.158213
  34 C :   -0.279242
  35 H :    0.123362
  36 H :    0.155903
  37 H :    0.126183

  Mayer bond orders larger than 0.100000
B(  0-C ,  1-H ) :   0.9256 B(  0-C ,  2-H ) :   0.9292 B(  0-C ,  3-H ) :   0.9403
B(  0-C ,  4-C ) :   0.9807 B(  4-C ,  5-O ) :   1.7866 B(  4-C ,  6-N ) :   1.1371
B(  6-N ,  7-C ) :   0.9587 B(  6-N , 10-C ) :   0.9292 B(  7-C ,  8-H ) :   0.9193
B(  7-C ,  9-H ) :   0.8957 B(  7-C , 27-C ) :   0.9288 B( 10-C , 11-H ) :   0.9267
B( 10-C , 12-H ) :   0.9199 B( 10-C , 13-C ) :   0.9730 B( 13-C , 14-H ) :   0.9206
B( 13-C , 15-H ) :   0.9290 B( 13-C , 16-C ) :   0.9771 B( 16-C , 17-C ) :   1.4296
B( 16-C , 18-C ) :   1.4449 B( 17-C , 19-C ) :   1.4459 B( 17-C , 20-H ) :   0.9013
B( 18-C , 21-C ) :   1.4353 B( 18-C , 22-H ) :   0.9263 B( 19-C , 23-C ) :   1.4445
B( 19-C , 24-H ) :   0.9301 B( 21-C , 23-C ) :   1.4601 B( 21-C , 25-H ) :   0.9300
B( 23-C , 26-H ) :   0.9310 B( 27-C , 28-N ) :   1.1617 B( 27-C , 29-O ) :   1.7596
B( 28-N , 29-O ) :   0.1012 B( 28-N , 30-C ) :   0.9541 B( 28-N , 34-C ) :   0.9543
B( 30-C , 31-H ) :   0.9370 B( 30-C , 32-H ) :   0.9365 B( 30-C , 33-H ) :   0.8881
B( 34-C , 35-H ) :   0.9388 B( 34-C , 36-H ) :   0.9187 B( 34-C , 37-H ) :   0.9407

Dispersion correction           -0.070928817
FINAL SINGLE POINT ENERGY      -805.073436310409

DIPOLE MOMENT
-------------
                                X             Y             Z
Electronic contribution:      2.47880      -0.36169       5.31896
Nuclear contribution   :     -2.15078       0.61120      -5.99292
                        -----------------------------------------
Total Dipole Moment    :      0.32802       0.24951      -0.67395
                        -----------------------------------------
Magnitude (a.u.)       :      0.78998
Magnitude (Debye)      :      2.00796

Dispersion correction in the Hessian             ... Starting D4

VIBRATIONAL FREQUENCIES
-----------------------

Scaling factor for frequencies =  1.000000000  (already applied!)

   0:         0.00 cm**-1
   1:         0.00 cm**-1
   2:         0.00 cm**-1
   3:         0.00 cm**-1
   4:         0.00 cm**-1
   5:         0.00 cm**-1
   6:        23.14 cm**-1
   7:        35.01 cm**-1
   8:        42.04 cm**-1
   9:        55.84 cm**-1
  10:        76.29 cm**-1
  11:        88.60 cm**-1
  12:       104.70 cm**-1
  13:       118.84 cm**-1
  14:       126.78 cm**-1
  15:       136.45 cm**-1
  16:       154.16 cm**-1
  17:       166.47 cm**-1
  18:       216.56 cm**-1
  19:       230.81 cm**-1
  20:       281.83 cm**-1
  21:       286.48 cm**-1
  22:       332.49 cm**-1
  23:       357.00 cm**-1
  24:       371.04 cm**-1
  25:       386.97 cm**-1
  26:       418.46 cm**-1
  27:       431.19 cm**-1
  28:       471.86 cm**-1
  29:       484.38 cm**-1
  30:       515.96 cm**-1
  31:       563.86 cm**-1
  32:       586.15 cm**-1
  33:       597.89 cm**-1
  34:       635.43 cm**-1
  35:       640.88 cm**-1
  36:       699.55 cm**-1
  37:       718.87 cm**-1
  38:       759.27 cm**-1
  39:       770.98 cm**-1
  40:       784.35 cm**-1
  41:       820.46 cm**-1
  42:       860.20 cm**-1
  43:       869.05 cm**-1
  44:       929.70 cm**-1
  45:       961.59 cm**-1
  46:       975.77 cm**-1
  47:      1001.63 cm**-1
  48:      1003.30 cm**-1
  49:      1012.12 cm**-1
  50:      1017.69 cm**-1
  51:      1027.50 cm**-1
  52:      1033.24 cm**-1
  53:      1060.12 cm**-1
  54:      1064.06 cm**-1
  55:      1089.62 cm**-1
  56:      1096.29 cm**-1
  57:      1125.09 cm**-1
  58:      1141.61 cm**-1
  59:      1169.09 cm**-1
  60:      1190.44 cm**-1
  61:      1192.32 cm**-1
  62:      1216.89 cm**-1
  63:      1221.96 cm**-1
  64:      1235.75 cm**-1
  65:      1253.63 cm**-1
  66:      1288.43 cm**-1
  67:      1298.98 cm**-1
  68:      1330.95 cm**-1
  69:      1339.41 cm**-1
  70:      1366.11 cm**-1
  71:      1375.26 cm**-1
  72:      1378.22 cm**-1
  73:      1410.17 cm**-1
  74:      1420.50 cm**-1
  75:      1448.44 cm**-1
  76:      1461.87 cm**-1
  77:      1474.82 cm**-1
  78:      1495.07 cm**-1
  79:      1501.39 cm**-1
  80:      1503.83 cm**-1
  81:      1515.03 cm**-1
  82:      1518.51 cm**-1
  83:      1521.15 cm**-1
  84:      1525.32 cm**-1
  85:      1534.49 cm**-1
  86:      1537.81 cm**-1
  87:      1545.59 cm**-1
  88:      1548.84 cm**-1
  89:      1570.87 cm**-1
  90:      1645.71 cm**-1
  91:      1667.91 cm**-1
  92:      1740.36 cm**-1
  93:      1746.30 cm**-1
  94:      3024.90 cm**-1
  95:      3033.53 cm**-1
  96:      3059.64 cm**-1
  97:      3063.07 cm**-1
  98:      3070.82 cm**-1
  99:      3081.53 cm**-1
 100:      3081.99 cm**-1
 101:      3084.68 cm**-1
 102:      3116.18 cm**-1
 103:      3125.11 cm**-1
 104:      3135.98 cm**-1
 105:      3169.54 cm**-1
 106:      3170.22 cm**-1
 107:      3177.18 cm**-1
 108:      3180.39 cm**-1
 109:      3188.61 cm**-1
 110:      3189.63 cm**-1
 111:      3192.31 cm**-1
 112:      3197.03 cm**-1
 113:      3207.91 cm**-1

IR SPECTRUM
-----------

 Mode   freq       eps      Int      T**2         TX        TY        TZ
       cm**-1   L/(mol*cm) km/mol    a.u.
----------------------------------------------------------------------------
  6:     23.14   0.000282    1.42  0.003798  (-0.041765 -0.018318  0.041453)
  7:     35.01   0.000332    1.68  0.002955  ( 0.046788  0.017924 -0.021080)
  8:     42.04   0.000189    0.96  0.001404  ( 0.035715 -0.005530 -0.009912)
  9:     55.84   0.000457    2.31  0.002551  ( 0.016239  0.029965 -0.037279)
 10:     76.29   0.000003    0.02  0.000012  (-0.002125  0.000190  0.002786)
 11:     88.60   0.000238    1.21  0.000840  ( 0.007768  0.027518  0.004717)
 12:    104.70   0.000813    4.11  0.002423  ( 0.029591  0.033105 -0.021236)
 13:    118.84   0.000501    2.53  0.001316  (-0.007520 -0.026385 -0.023726)
 14:    126.78   0.001602    8.10  0.003944  (-0.003143  0.051026  0.036481)
 15:    136.45   0.000396    2.00  0.000907  (-0.019752 -0.022718 -0.000586)
 16:    154.16   0.000396    2.00  0.000802  ( 0.004053  0.028027  0.000531)
 17:    166.47   0.000047    0.23  0.000087  (-0.003611  0.005772 -0.006389)
 18:    216.56   0.000147    0.74  0.000212  (-0.008478 -0.003609  0.011264)
 19:    230.81   0.000349    1.76  0.000472  ( 0.009879  0.017078 -0.009086)
 20:    281.83   0.001498    7.57  0.001658  ( 0.024626  0.031024 -0.009450)
 21:    286.48   0.000143    0.72  0.000155  (-0.001102 -0.006690  0.010454)
 22:    332.49   0.000402    2.03  0.000378  (-0.000354  0.018241 -0.006692)
 23:    357.00   0.001486    7.51  0.001299  ( 0.017258  0.016196  0.027180)
 24:    371.04   0.000602    3.04  0.000507  (-0.012687  0.016522  0.008524)
 25:    386.97   0.001409    7.12  0.001137  ( 0.006221 -0.019393 -0.026867)
 26:    418.46   0.000012    0.06  0.000009  ( 0.003047 -0.000116 -0.000006)
 27:    431.19   0.000142    0.72  0.000103  (-0.009333  0.000451  0.003915)
 28:    471.86   0.001713    8.66  0.001133  (-0.032291  0.005574  0.007676)
 29:    484.38   0.002824   14.27  0.001820  ( 0.019822  0.033676 -0.017104)
 30:    515.96   0.001882    9.51  0.001138  ( 0.010046 -0.009032 -0.030919)
 31:    563.86   0.001707    8.63  0.000945  (-0.021966  0.021210 -0.003520)
 32:    586.15   0.001044    5.28  0.000556  ( 0.006731  0.014020  0.017721)
 33:    597.89   0.002857   14.44  0.001491  ( 0.011033 -0.026437 -0.025895)
 34:    635.43   0.000319    1.61  0.000157  (-0.010012  0.001003 -0.007439)
 35:    640.88   0.001317    6.66  0.000641  (-0.013043  0.007996 -0.020179)
 36:    699.55   0.000635    3.21  0.000283  (-0.015986 -0.004114 -0.003295)
 37:    718.87   0.004167   21.06  0.001809  ( 0.003900 -0.022376 -0.035961)
 38:    759.27   0.004370   22.08  0.001796  (-0.004358  0.023469  0.035017)
 39:    770.98   0.000840    4.24  0.000340  (-0.007813 -0.008585  0.014324)
 40:    784.35   0.001087    5.49  0.000432  ( 0.000977  0.019414  0.007388)
 41:    820.46   0.001274    6.44  0.000485  ( 0.015313  0.010051  0.012209)
 42:    860.20   0.001461    7.38  0.000530  (-0.013093 -0.010653 -0.015651)
 43:    869.05   0.000092    0.46  0.000033  (-0.005133 -0.002234 -0.001250)
 44:    929.70   0.000143    0.72  0.000048  ( 0.001031 -0.003439 -0.005912)
 45:    961.59   0.000336    1.70  0.000109  ( 0.005181  0.005980  0.006807)
 46:    975.77   0.000018    0.09  0.000006  (-0.001681  0.001130  0.001310)
 47:   1001.63   0.000108    0.55  0.000034  (-0.004941  0.003042 -0.000165)
 48:   1003.30   0.002694   13.62  0.000838  (-0.023581 -0.004725 -0.016113)
 49:   1012.12   0.004027   20.35  0.001242  (-0.008320  0.025951  0.022337)
 50:   1017.69   0.000322    1.62  0.000099  (-0.005418  0.008087 -0.001957)
 51:   1027.50   0.004591   23.20  0.001394  ( 0.017731 -0.028794  0.015834)
 52:   1033.24   0.003318   16.77  0.001002  (-0.014960  0.017369  0.021834)
 53:   1060.12   0.000875    4.42  0.000258  ( 0.015952 -0.000257  0.001733)
 54:   1064.06   0.000855    4.32  0.000251  (-0.000981  0.006306  0.014494)
 55:   1089.62   0.002085   10.53  0.000597  (-0.016358  0.001111 -0.018117)
 56:   1096.29   0.000870    4.39  0.000248  ( 0.008500 -0.011800 -0.006003)
 57:   1125.09   0.002371   11.98  0.000658  ( 0.016842  0.001788  0.019255)
 58:   1141.61   0.000051    0.26  0.000014  ( 0.000030  0.003484 -0.001384)
 59:   1169.09   0.010187   51.48  0.002719  (-0.038803 -0.022440 -0.026648)
 60:   1190.44   0.000594    3.00  0.000156  (-0.009365 -0.008245  0.000116)
 61:   1192.32   0.000021    0.11  0.000006  ( 0.001425 -0.000751  0.001737)
 62:   1216.89   0.000164    0.83  0.000042  ( 0.004298  0.000993 -0.004745)
 63:   1221.96   0.005565   28.12  0.001421  ( 0.006038 -0.013826  0.034548)
 64:   1235.75   0.001288    6.51  0.000325  ( 0.014216 -0.011006 -0.001406)
 65:   1253.63   0.007412   37.46  0.001845  (-0.029520  0.030615 -0.006039)
 66:   1288.43   0.006169   31.17  0.001494  (-0.010066  0.024804  0.027884)
 67:   1298.98   0.018991   95.97  0.004562  ( 0.010660 -0.064941  0.015212)
 68:   1330.95   0.000104    0.53  0.000024  ( 0.004417  0.001021 -0.001951)
 69:   1339.41   0.001922    9.71  0.000448  (-0.010143  0.018283 -0.003273)
 70:   1366.11   0.000233    1.18  0.000053  (-0.003296 -0.006122  0.002204)
 71:   1375.26   0.000399    2.02  0.000090  ( 0.006539 -0.004769  0.005000)
 72:   1378.22   0.000372    1.88  0.000084  (-0.001289  0.008472 -0.003276)
 73:   1410.17   0.006167   31.16  0.001365  (-0.035539  0.006655  0.007573)
 74:   1420.50   0.004594   23.21  0.001009  ( 0.020049 -0.022223  0.010648)
 75:   1448.44   0.006180   31.23  0.001332  (-0.018987 -0.016053 -0.026709)
 76:   1461.87   0.020236  102.27  0.004320  ( 0.007850  0.057396  0.031047)
 77:   1474.82   0.023424  118.37  0.004956  ( 0.047616 -0.046797  0.022339)
 78:   1495.07   0.004854   24.53  0.001013  ( 0.030606 -0.008720  0.000585)
 79:   1501.39   0.001566    7.92  0.000326  ( 0.004755 -0.001988 -0.017291)
 80:   1503.83   0.001217    6.15  0.000253  (-0.001972 -0.013618  0.007957)
 81:   1515.03   0.000984    4.97  0.000203  ( 0.004448 -0.001636  0.013424)
 82:   1518.51   0.002853   14.42  0.000586  ( 0.000600 -0.023533  0.005667)
 83:   1521.15   0.001124    5.68  0.000231  ( 0.009969 -0.008473 -0.007705)
 84:   1525.32   0.000588    2.97  0.000120  (-0.000620  0.010727 -0.002186)
 85:   1534.49   0.006086   30.76  0.001238  (-0.002186 -0.022060  0.027320)
 86:   1537.81   0.004260   21.53  0.000864  ( 0.028653  0.006536  0.000876)
 87:   1545.59   0.000569    2.88  0.000115  ( 0.000213 -0.000767  0.010693)
 88:   1548.84   0.003754   18.97  0.000756  (-0.026761  0.003847 -0.005032)
 89:   1570.87   0.008079   40.83  0.001605  ( 0.001865  0.023642  0.032288)
 90:   1645.71   0.000294    1.49  0.000056  (-0.003633  0.004514 -0.004718)
 91:   1667.91   0.001541    7.79  0.000288  ( 0.016879 -0.001715  0.000708)
 92:   1740.36   0.050569  255.55  0.009067  (-0.066551  0.012824 -0.066888)
 93:   1746.30   0.081780  413.28  0.014614  ( 0.117258 -0.016838  0.024106)
 94:   3024.90   0.005659   28.60  0.000584  (-0.019553  0.004683 -0.013401)
 95:   3033.53   0.016684   84.31  0.001716  (-0.009660 -0.019862 -0.035050)
 96:   3059.64   0.003426   17.32  0.000349  (-0.013901  0.004251 -0.011753)
 97:   3063.07   0.001713    8.66  0.000174  (-0.000873  0.009022 -0.009610)
 98:   3070.82   0.009246   46.72  0.000940  ( 0.023843  0.016941 -0.009169)
 99:   3081.53   0.005712   28.87  0.000578  (-0.017883 -0.015379  0.004706)
100:   3081.99   0.002918   14.75  0.000295  ( 0.009663  0.011727 -0.008036)
101:   3084.68   0.005798   29.30  0.000587  ( 0.009404  0.004236  0.021914)
102:   3116.18   0.001167    5.90  0.000117  ( 0.007330  0.006590  0.004443)
103:   3125.11   0.002156   10.90  0.000215  ( 0.004069 -0.004713 -0.013287)
104:   3135.98   0.004099   20.71  0.000408  (-0.001586 -0.019888  0.003132)
105:   3169.54   0.000295    1.49  0.000029  (-0.002255 -0.004733 -0.001252)
106:   3170.22   0.002170   10.97  0.000214  (-0.009251  0.009322 -0.006412)
107:   3177.18   0.001613    8.15  0.000158  ( 0.010740 -0.005993  0.002684)
108:   3180.39   0.000143    0.72  0.000014  ( 0.003705  0.000421  0.000357)
109:   3188.61   0.002218   11.21  0.000217  (-0.004550  0.011759 -0.007623)
110:   3189.63   0.002454   12.40  0.000240  (-0.003066 -0.014906 -0.002915)
111:   3192.31   0.000141    0.71  0.000014  (-0.003485 -0.001279 -0.000173)
112:   3197.03   0.005109   25.82  0.000499  (-0.006028 -0.019025  0.010021)
113:   3207.91   0.005885   29.74  0.000572  ( 0.023589 -0.002600  0.003041)

--------------------------
THERMOCHEMISTRY AT 298.15K
--------------------------

Temperature         ... 298.15 K
Pressure            ... 1.00 atm
Total Mass          ... 248.33 AMU

Throughout the following assumptions are being made:
  (1) The electronic state is orbitally nondegenerate
  (2) There are no thermally accessible electronically excited states
  (3) Hindered rotations indicated by low frequency modes are not
      treated as such but are treated as vibrations and this may
      cause some error
  (4) All equations used are the standard statistical mechanics
      equations for an ideal gas
  (5) All vibrations are strictly harmonic

freq.      23.14  E(vib)   ...       0.56
freq.      35.01  E(vib)   ...       0.54
freq.      42.04  E(vib)   ...       0.53
freq.      55.84  E(vib)   ...       0.52
freq.      76.29  E(vib)   ...       0.49
freq.      88.60  E(vib)   ...       0.47
freq.     104.70  E(vib)   ...       0.46
freq.     118.84  E(vib)   ...       0.44
freq.     126.78  E(vib)   ...       0.43
freq.     136.45  E(vib)   ...       0.42
freq.     154.16  E(vib)   ...       0.40
freq.     166.47  E(vib)   ...       0.39
freq.     216.56  E(vib)   ...       0.34
freq.     230.81  E(vib)   ...       0.32
freq.     281.83  E(vib)   ...       0.28
freq.     286.48  E(vib)   ...       0.27
freq.     332.49  E(vib)   ...       0.24
freq.     357.00  E(vib)   ...       0.22
freq.     371.04  E(vib)   ...       0.21
freq.     386.97  E(vib)   ...       0.20
freq.     418.46  E(vib)   ...       0.18
freq.     431.19  E(vib)   ...       0.18
freq.     471.86  E(vib)   ...       0.15
freq.     484.38  E(vib)   ...       0.15
freq.     515.96  E(vib)   ...       0.13
freq.     563.86  E(vib)   ...       0.11
freq.     586.15  E(vib)   ...       0.11
freq.     597.89  E(vib)   ...       0.10
freq.     635.43  E(vib)   ...       0.09
freq.     640.88  E(vib)   ...       0.09
freq.     699.55  E(vib)   ...       0.07
freq.     718.87  E(vib)   ...       0.07
freq.     759.27  E(vib)   ...       0.06
freq.     770.98  E(vib)   ...       0.05
freq.     784.35  E(vib)   ...       0.05
freq.     820.46  E(vib)   ...       0.05
freq.     860.20  E(vib)   ...       0.04
freq.     869.05  E(vib)   ...       0.04
freq.     929.70  E(vib)   ...       0.03
freq.     961.59  E(vib)   ...       0.03
freq.     975.77  E(vib)   ...       0.03
freq.    1001.63  E(vib)   ...       0.02
freq.    1003.30  E(vib)   ...       0.02
freq.    1012.12  E(vib)   ...       0.02
freq.    1017.69  E(vib)   ...       0.02
freq.    1027.50  E(vib)   ...       0.02
freq.    1033.24  E(vib)   ...       0.02
freq.    1060.12  E(vib)   ...       0.02
freq.    1064.06  E(vib)   ...       0.02
freq.    1089.62  E(vib)   ...       0.02
freq.    1096.29  E(vib)   ...       0.02
freq.    1125.09  E(vib)   ...       0.01
freq.    1141.61  E(vib)   ...       0.01
freq.    1169.09  E(vib)   ...       0.01
freq.    1190.44  E(vib)   ...       0.01
freq.    1192.32  E(vib)   ...       0.01
freq.    1216.89  E(vib)   ...       0.01
freq.    1221.96  E(vib)   ...       0.01
freq.    1235.75  E(vib)   ...       0.01
freq.    1253.63  E(vib)   ...       0.01
freq.    1288.43  E(vib)   ...       0.01
freq.    1298.98  E(vib)   ...       0.01
freq.    1330.95  E(vib)   ...       0.01
freq.    1339.41  E(vib)   ...       0.01
freq.    1366.11  E(vib)   ...       0.01
freq.    1375.26  E(vib)   ...       0.01
freq.    1378.22  E(vib)   ...       0.01
freq.    1410.17  E(vib)   ...       0.00
freq.    1420.50  E(vib)   ...       0.00
freq.    1448.44  E(vib)   ...       0.00
freq.    1461.87  E(vib)   ...       0.00
freq.    1474.82  E(vib)   ...       0.00
freq.    1495.07  E(vib)   ...       0.00
freq.    1501.39  E(vib)   ...       0.00
freq.    1503.83  E(vib)   ...       0.00
freq.    1515.03  E(vib)   ...       0.00
freq.    1518.51  E(vib)   ...       0.00
freq.    1521.15  E(vib)   ...       0.00
freq.    1525.32  E(vib)   ...       0.00
freq.    1534.49  E(vib)   ...       0.00
freq.    1537.81  E(vib)   ...       0.00
freq.    1545.59  E(vib)   ...       0.00
freq.    1548.84  E(vib)   ...       0.00
freq.    1570.87  E(vib)   ...       0.00
freq.    1645.71  E(vib)   ...       0.00
freq.    1667.91  E(vib)   ...       0.00
freq.    1740.36  E(vib)   ...       0.00
freq.    1746.30  E(vib)   ...       0.00
freq.    3024.90  E(vib)   ...       0.00
freq.    3033.53  E(vib)   ...       0.00
freq.    3059.64  E(vib)   ...       0.00
freq.    3063.07  E(vib)   ...       0.00
freq.    3070.82  E(vib)   ...       0.00
freq.    3081.53  E(vib)   ...       0.00
freq.    3081.99  E(vib)   ...       0.00
freq.    3084.68  E(vib)   ...       0.00
freq.    3116.18  E(vib)   ...       0.00
freq.    3125.11  E(vib)   ...       0.00
freq.    3135.98  E(vib)   ...       0.00
freq.    3169.54  E(vib)   ...       0.00
freq.    3170.22  E(vib)   ...       0.00
freq.    3177.18  E(vib)   ...       0.00
freq.    3180.39  E(vib)   ...       0.00
freq.    3188.61  E(vib)   ...       0.00
freq.    3189.63  E(vib)   ...       0.00
freq.    3192.31  E(vib)   ...       0.00
freq.    3197.03  E(vib)   ...       0.00
freq.    3207.91  E(vib)   ...       0.00

------------
INNER ENERGY
------------

The inner energy is: U= E(el) + E(ZPE) + E(vib) + E(rot) + E(trans)
    E(el)   - is the total energy from the electronic structure calculation
              = E(kin-el) + E(nuc-el) + E(el-el) + E(nuc-nuc)
    E(ZPE)  - the the zero temperature vibrational energy from the frequency calculation
    E(vib)  - the the finite temperature correction to E(ZPE) due to population
              of excited vibrational states
    E(rot)  - is the rotational thermal energy
    E(trans)- is the translational thermal energy

Summary of contributions to the inner energy U:
Electronic energy                ...   -805.07343631 Eh
Zero point energy                ...      0.32692005 Eh     205.14 kcal/mol
Thermal vibrational correction   ...      0.01582253 Eh       9.93 kcal/mol
Thermal rotational correction    ...      0.00141627 Eh       0.89 kcal/mol
Thermal translational correction ...      0.00141627 Eh       0.89 kcal/mol
-----------------------------------------------------------------------
Total thermal energy                   -804.72786119 Eh

Summary of corrections to the electronic energy:
(perhaps to be used in another calculation)
Total thermal correction                  0.01865507 Eh      11.71 kcal/mol
Non-thermal (ZPE) correction              0.32692005 Eh     205.14 kcal/mol
-----------------------------------------------------------------------
Total correction                          0.34557512 Eh     216.85 kcal/mol

--------
ENTHALPY
--------

Rotational constants in cm-1:     0.020000     0.008840     0.006929

                             ****ORCA TERMINATED NORMALLY****
TOTAL RUN TIME: 0 days 0 hours 37 minutes 21 seconds 790 msec
