                         Program Version 5.0.4 -  RELEASE  -
|  1> ! OPT FREQ B3LYP 6-31+G(d) D4 AUTOAUX CPCM(water)
|  2>
|  3> %PAL NPROCS 4 END
|  4>
|  5> %maxcore 3375
|  6>
|  7> *xyzfile 1 1 /users/fjb15167/WWenergy/structures/Nkeqm.xyz
|  8>
|  9>                          ****END OF INPUT****
 Total Charge           Charge          ....    1
 Multiplicity           Mult            ....    1
 Number of Electrons    NEL             ....  126
Dispersion correction           -0.064735130
FINAL SINGLE POINT ENERGY      -747.817192976146
Dispersion correction            ... Starting D4
Dispersion correction           -0.063342173
FINAL SINGLE POINT ENERGY      -747.821150551224
Dispersion correction            ... Starting D4
Dispersion correction           -0.063269791
FINAL SINGLE POINT ENERGY      -747.822407971387
Dispersion correction            ... Starting D4
FINAL SINGLE POINT ENERGY      -747.823308903806
FINAL SINGLE POINT ENERGY      -747.823819109903
FINAL SINGLE POINT ENERGY      -747.824288105721
FINAL SINGLE POINT ENERGY      -747.824713429494
FINAL SINGLE POINT ENERGY      -747.824994126548
FINAL SINGLE POINT ENERGY      -747.825226776875
FINAL SINGLE POINT ENERGY      -747.825250409536
FINAL SINGLE POINT ENERGY      -747.825327971029
Dispersion correction           -0.062433339
FINAL SINGLE POINT ENERGY      -747.825332118423
Dispersion correction            ... Starting D4
Dispersion correction           -0.062435109
FINAL SINGLE POINT ENERGY      -747.825333242610
Dispersion correction            ... Starting D4
                    ***********************HURRAY********************

CARTESIAN COORDINATES (ANGSTROEM)
---------------------------------
  C      1.275898    2.996010    0.186535
  H      1.318493    3.145241   -0.899281
  H      2.270119    2.681148    0.520926
  H      1.022484    3.945369    0.661759
  C      0.212114    1.981764    0.553466
  O     -0.790786    2.307900    1.211370
  N      0.377540    0.697027    0.123766
  C      1.553908    0.238322   -0.592742
  H      1.260181   -0.604505   -1.225931
  H      1.913172    1.019437   -1.266135
  C     -0.588056   -0.313508    0.551649
  H     -0.067313   -1.270139    0.622274
  H     -0.955430   -0.044614    1.542623
  C     -1.721517   -0.369035   -0.479790
  H     -2.152459    0.624006   -0.619751
  H     -1.338846   -0.729288   -1.438139
  C      2.678303   -0.195707    0.371882
  N      3.807086   -0.693687   -0.184366
  O      2.516837   -0.082660    1.597865
  C      4.944168   -1.054419    0.660944
  H      5.304051   -2.050236    0.379784
  H      5.761100   -0.333633    0.523789
  H      4.636401   -1.057023    1.705599
  C      4.072433   -0.733724   -1.622571
  H      4.577624   -1.675397   -1.860662
  H      3.153107   -0.686379   -2.204329
  H      4.725598    0.098331   -1.917324
  N     -2.878644   -1.284773   -0.116222
  C     -2.394424   -2.682341    0.167148
  H     -1.798286   -3.021095   -0.681885
  H     -1.798017   -2.678245    1.079345
  C     -3.817716   -1.324691   -1.294980
  H     -4.145462   -0.306366   -1.509504
  H     -3.282316   -1.741758   -2.149210
  C     -3.631072   -0.756576    1.077891
  H     -3.970894    0.255329    0.851276
  H     -2.975805   -0.754742    1.947884
  H     -4.670301   -1.953892   -1.034908
  H     -3.268235   -3.322008    0.298414
  H     -4.483039   -1.414441    1.256540

 Multiplicity           Mult            ....    1
 Number of Electrons    NEL             ....  126
 Basis Dimension        Dim             ....  336

ORBITAL ENERGIES
----------------

  NO   OCC          E(Eh)            E(eV)
   0   2.0000     -19.128815      -520.5215
   1   2.0000     -19.127158      -520.4764
   2   2.0000     -14.468854      -393.7175
   3   2.0000     -14.377653      -391.2358
   4   2.0000     -14.374550      -391.1514
   5   2.0000     -10.298614      -280.2395
   6   2.0000     -10.296255      -280.1754
   7   2.0000     -10.242099      -278.7017
   8   2.0000     -10.233330      -278.4631
   9   2.0000     -10.231287      -278.4075
  10   2.0000     -10.230876      -278.3963
  11   2.0000     -10.230749      -278.3928
  12   2.0000     -10.230624      -278.3894
  13   2.0000     -10.211424      -277.8670
  14   2.0000     -10.204467      -277.6777
  15   2.0000     -10.181419      -277.0505
  16   2.0000      -1.050172       -28.5766
  17   2.0000      -1.041630       -28.3442
  18   2.0000      -1.023753       -27.8577
  19   2.0000      -0.950554       -25.8659
  20   2.0000      -0.942457       -25.6456
  21   2.0000      -0.797044       -21.6887
  22   2.0000      -0.756640       -20.5892
  23   2.0000      -0.753095       -20.4928
  24   2.0000      -0.752147       -20.4670
  25   2.0000      -0.739389       -20.1198
  26   2.0000      -0.719716       -19.5845
  27   2.0000      -0.693473       -18.8704
  28   2.0000      -0.679452       -18.4888
  29   2.0000      -0.622961       -16.9516
  30   2.0000      -0.574717       -15.6389
  31   2.0000      -0.544994       -14.8300
  32   2.0000      -0.533434       -14.5155
  33   2.0000      -0.530092       -14.4245
  34   2.0000      -0.520463       -14.1625
  35   2.0000      -0.508392       -13.8341
  36   2.0000      -0.504970       -13.7409
  37   2.0000      -0.495047       -13.4709
  38   2.0000      -0.476769       -12.9735
  39   2.0000      -0.468948       -12.7607
  40   2.0000      -0.459949       -12.5159
  41   2.0000      -0.454801       -12.3758
  42   2.0000      -0.442463       -12.0400
  43   2.0000      -0.428227       -11.6526
  44   2.0000      -0.423559       -11.5256
  45   2.0000      -0.418132       -11.3780
  46   2.0000      -0.411857       -11.2072
  47   2.0000      -0.407611       -11.0917
  48   2.0000      -0.406945       -11.0735
  49   2.0000      -0.406399       -11.0587
  50   2.0000      -0.406213       -11.0536
  51   2.0000      -0.401921       -10.9368
  52   2.0000      -0.400731       -10.9045
  53   2.0000      -0.398326       -10.8390
  54   2.0000      -0.396009       -10.7760
  55   2.0000      -0.382925       -10.4199
  56   2.0000      -0.375716       -10.2238
  57   2.0000      -0.367048        -9.9879
  58   2.0000      -0.358697        -9.7607
  59   2.0000      -0.275732        -7.5031
  60   2.0000      -0.269887        -7.3440
  61   2.0000      -0.258902        -7.0451
  62   2.0000      -0.251946        -6.8558
  63   0.0000      -0.000259        -0.0070
  64   0.0000       0.003904         0.1062
  65   0.0000       0.008891         0.2419
  66   0.0000       0.013533         0.3683
  67   0.0000       0.018786         0.5112

MULLIKEN ATOMIC CHARGES
-----------------------
   0 C :   -0.907020
   1 H :    0.262428
   2 H :    0.261393
   3 H :    0.244392
   4 C :    0.813523
   5 O :   -0.604734
   6 N :    0.013877
   7 C :   -1.132487
   8 H :    0.279880
   9 H :    0.283601
  10 C :   -0.590436
  11 H :    0.259870
  12 H :    0.260384
  13 C :   -0.080384
  14 H :    0.287205
  15 H :    0.280038
  16 C :    0.767154
  17 N :   -0.115518
  18 O :   -0.588251
  19 C :   -0.582773
  20 H :    0.229231
  21 H :    0.232360
  22 H :    0.244476
  23 C :   -0.507576
  24 H :    0.229761
  25 H :    0.233721
  26 H :    0.237014
  27 N :   -0.588218
  28 C :   -0.435137
  29 H :    0.284263
  30 H :    0.280369
  31 C :   -0.406692
  32 H :    0.279701
  33 H :    0.278918
  34 C :   -0.404108
  35 H :    0.281284
  36 H :    0.277516
  37 H :    0.279947
  38 H :    0.280305
  39 H :    0.280725
Sum of atomic charges:    1.0000000

LOEWDIN ATOMIC CHARGES
----------------------
   0 C :   -0.460704
   1 H :    0.227632
   2 H :    0.229280
   3 H :    0.219053
   4 C :    0.117916
   5 O :   -0.459236
   6 N :   -0.292339
   7 C :   -0.243291
   8 H :    0.252431
   9 H :    0.253618
  10 C :   -0.241540
  11 H :    0.240995
  12 H :    0.249638
  13 C :   -0.259204
  14 H :    0.255522
  15 H :    0.251142
  16 C :    0.107304
  17 N :   -0.321287
  18 O :   -0.443543
  19 C :   -0.350582
  20 H :    0.209571
  21 H :    0.210637
  22 H :    0.229959
  23 C :   -0.355515
  24 H :    0.213001
  25 H :    0.219196
  26 H :    0.212588
  27 N :   -0.329868
  28 C :   -0.363184
  29 H :    0.241830
  30 H :    0.239171
  31 C :   -0.362044
  32 H :    0.237988
  33 H :    0.237405
  34 C :   -0.362822
  35 H :    0.240327
  36 H :    0.238084
  37 H :    0.235794
  38 H :    0.237650
  39 H :    0.237427

  Mayer bond orders larger than 0.100000
B(  0-C ,  1-H ) :   0.9448 B(  0-C ,  2-H ) :   0.9469 B(  0-C ,  3-H ) :   1.0014
B(  0-C ,  4-C ) :   0.3962 B(  0-C ,  6-N ) :  -0.1363 B(  0-C ,  7-C ) :  -0.1151
B(  4-C ,  5-O ) :   1.6562 B(  4-C ,  6-N ) :   1.2212 B(  4-C ,  7-C ) :   0.1568
B(  5-O ,  7-C ) :   0.1100 B(  5-O , 10-C ) :  -0.1466 B(  6-N ,  7-C ) :   0.9250
B(  6-N , 10-C ) :   0.7596 B(  7-C ,  8-H ) :   0.9752 B(  7-C ,  9-H ) :   0.9925
B(  7-C , 16-C ) :   0.4497 B(  7-C , 17-N ) :  -0.1459 B( 10-C , 11-H ) :   1.0162
B( 10-C , 12-H ) :   1.0483 B( 10-C , 13-C ) :   0.4958 B( 11-H , 13-C ) :  -0.1027
B( 12-H , 13-C ) :  -0.1021 B( 13-C , 14-H ) :   0.9166 B( 13-C , 15-H ) :   0.9341
B( 13-C , 27-N ) :   0.8979 B( 13-C , 28-C ) :  -0.1221 B( 13-C , 31-C ) :  -0.1106
B( 13-C , 34-C ) :  -0.1237 B( 16-C , 17-N ) :   1.3221 B( 16-C , 18-O ) :   1.7987
B( 17-N , 19-C ) :   0.8390 B( 17-N , 23-C ) :   0.8230 B( 19-C , 20-H ) :   0.9310
B( 19-C , 21-H ) :   0.9392 B( 19-C , 22-H ) :   0.9470 B( 23-C , 24-H ) :   0.9289
B( 23-C , 25-H ) :   0.9318 B( 23-C , 26-H ) :   0.9311 B( 27-N , 28-C ) :   0.8989
B( 27-N , 31-C ) :   0.8813 B( 27-N , 34-C ) :   0.9105 B( 28-C , 29-H ) :   0.9075
B( 28-C , 30-H ) :   0.9058 B( 28-C , 31-C ) :  -0.1460 B( 28-C , 34-C ) :  -0.1657
B( 28-C , 38-H ) :   0.9110 B( 31-C , 32-H ) :   0.9108 B( 31-C , 33-H ) :   0.9127
B( 31-C , 34-C ) :  -0.1493 B( 31-C , 37-H ) :   0.9069 B( 34-C , 35-H ) :   0.9166
B( 34-C , 36-H ) :   0.9043 B( 34-C , 39-H ) :   0.9068

Dispersion correction           -0.062433112
FINAL SINGLE POINT ENERGY      -747.825334610595

DIPOLE MOMENT
-------------
                                X             Y             Z
Electronic contribution:      3.25763       5.39761       4.52455
Nuclear contribution   :     -6.63488      -9.06679      -8.17171
                        -----------------------------------------
Total Dipole Moment    :     -3.37725      -3.66917      -3.64716
                        -----------------------------------------
Magnitude (a.u.)       :      6.17822
Magnitude (Debye)      :     15.70379

Dispersion correction in the Hessian             ... Starting D4

VIBRATIONAL FREQUENCIES
-----------------------

Scaling factor for frequencies =  1.000000000  (already applied!)

   0:         0.00 cm**-1
   1:         0.00 cm**-1
   2:         0.00 cm**-1
   3:         0.00 cm**-1
   4:         0.00 cm**-1
   5:         0.00 cm**-1
   6:        -8.86 cm**-1 ***imaginary mode***
   7:        19.65 cm**-1
   8:        40.78 cm**-1
   9:        42.56 cm**-1
  10:        54.21 cm**-1
  11:        68.47 cm**-1
  12:        83.06 cm**-1
  13:       102.00 cm**-1
  14:       122.38 cm**-1
  15:       127.14 cm**-1
  16:       181.89 cm**-1
  17:       184.37 cm**-1
  18:       218.33 cm**-1
  19:       240.87 cm**-1
  20:       248.04 cm**-1
  21:       261.73 cm**-1
  22:       311.68 cm**-1
  23:       318.58 cm**-1
  24:       327.82 cm**-1
  25:       369.83 cm**-1
  26:       376.52 cm**-1
  27:       383.42 cm**-1
  28:       405.09 cm**-1
  29:       430.26 cm**-1
  30:       460.48 cm**-1
  31:       468.18 cm**-1
  32:       478.78 cm**-1
  33:       490.88 cm**-1
  34:       547.74 cm**-1
  35:       579.50 cm**-1
  36:       597.58 cm**-1
  37:       609.24 cm**-1
  38:       655.20 cm**-1
  39:       768.40 cm**-1
  40:       780.30 cm**-1
  41:       803.59 cm**-1
  42:       834.00 cm**-1
  43:       927.30 cm**-1
  44:       957.85 cm**-1
  45:       966.91 cm**-1
  46:       976.47 cm**-1
  47:       992.60 cm**-1
  48:      1004.66 cm**-1
  49:      1058.06 cm**-1
  50:      1064.93 cm**-1
  51:      1069.95 cm**-1
  52:      1079.86 cm**-1
  53:      1100.33 cm**-1
  54:      1117.58 cm**-1
  55:      1126.43 cm**-1
  56:      1158.99 cm**-1
  57:      1167.06 cm**-1
  58:      1177.20 cm**-1
  59:      1179.69 cm**-1
  60:      1228.71 cm**-1
  61:      1271.09 cm**-1
  62:      1274.83 cm**-1
  63:      1279.99 cm**-1
  64:      1302.21 cm**-1
  65:      1311.43 cm**-1
  66:      1350.11 cm**-1
  67:      1380.67 cm**-1
  68:      1390.13 cm**-1
  69:      1395.79 cm**-1
  70:      1409.49 cm**-1
  71:      1440.70 cm**-1
  72:      1449.99 cm**-1
  73:      1450.44 cm**-1
  74:      1468.27 cm**-1
  75:      1472.14 cm**-1
  76:      1475.01 cm**-1
  77:      1478.33 cm**-1
  78:      1484.91 cm**-1
  79:      1489.36 cm**-1
  80:      1493.61 cm**-1
  81:      1494.88 cm**-1
  82:      1496.05 cm**-1
  83:      1497.79 cm**-1
  84:      1500.51 cm**-1
  85:      1501.46 cm**-1
  86:      1504.13 cm**-1
  87:      1511.33 cm**-1
  88:      1517.61 cm**-1
  89:      1525.15 cm**-1
  90:      1526.96 cm**-1
  91:      1530.33 cm**-1
  92:      1536.84 cm**-1
  93:      1551.55 cm**-1
  94:      1663.15 cm**-1
  95:      1675.40 cm**-1
  96:      3041.77 cm**-1
  97:      3046.30 cm**-1
  98:      3061.33 cm**-1
  99:      3097.19 cm**-1
 100:      3097.66 cm**-1
 101:      3100.07 cm**-1
 102:      3103.21 cm**-1
 103:      3103.72 cm**-1
 104:      3109.46 cm**-1
 105:      3112.12 cm**-1
 106:      3117.87 cm**-1
 107:      3124.65 cm**-1
 108:      3146.41 cm**-1
 109:      3161.75 cm**-1
 110:      3165.24 cm**-1
 111:      3179.03 cm**-1
 112:      3188.78 cm**-1
 113:      3189.54 cm**-1
 114:      3193.54 cm**-1
 115:      3194.66 cm**-1
 116:      3199.93 cm**-1
 117:      3200.76 cm**-1
 118:      3203.68 cm**-1
 119:      3210.90 cm**-1

IR SPECTRUM
-----------

 Mode   freq       eps      Int      T**2         TX        TY        TZ
       cm**-1   L/(mol*cm) km/mol    a.u.
----------------------------------------------------------------------------
  7:     19.65   0.000672    3.40  0.010679  ( 0.006575 -0.099048 -0.028721)
  8:     40.78   0.000350    1.77  0.002676  ( 0.000341 -0.046361 -0.022937)
  9:     42.56   0.002788   14.09  0.020439  (-0.094636 -0.098021 -0.043298)
 10:     54.21   0.000203    1.03  0.001171  ( 0.017226 -0.019497  0.022223)
 11:     68.47   0.000310    1.57  0.001413  (-0.008428 -0.035071 -0.010563)
 12:     83.06   0.000354    1.79  0.001329  ( 0.035428  0.007482  0.004169)
 13:    102.00   0.001874    9.47  0.005733  (-0.022467  0.025268 -0.067745)
 14:    122.38   0.000600    3.03  0.001529  (-0.003658 -0.038272 -0.007123)
 15:    127.14   0.002216   11.20  0.005439  ( 0.039178  0.062294 -0.004875)
 16:    181.89   0.000161    0.81  0.000276  ( 0.011497 -0.003316  0.011503)
 17:    184.37   0.002310   11.67  0.003910  ( 0.047048 -0.003591  0.041032)
 18:    218.33   0.000812    4.10  0.001161  ( 0.029126 -0.008929 -0.015253)
 19:    240.87   0.001715    8.67  0.002222  (-0.000109 -0.045610 -0.011912)
 20:    248.04   0.000067    0.34  0.000084  ( 0.006176  0.005967 -0.003198)
 21:    261.73   0.000150    0.76  0.000179  ( 0.011010  0.007519  0.001160)
 22:    311.68   0.000092    0.46  0.000092  ( 0.001295  0.006604  0.006818)
 23:    318.58   0.000041    0.21  0.000040  ( 0.004592  0.003094  0.003043)
 24:    327.82   0.001175    5.94  0.001119  ( 0.020211  0.022286  0.014622)
 25:    369.83   0.000271    1.37  0.000229  (-0.012839 -0.001912 -0.007782)
 26:    376.52   0.000159    0.80  0.000132  ( 0.001202  0.010037  0.005448)
 27:    383.42   0.003922   19.82  0.003192  ( 0.048685 -0.028577  0.002208)
 28:    405.09   0.000931    4.70  0.000717  (-0.009663  0.024845  0.002548)
 29:    430.26   0.001791    9.05  0.001299  ( 0.019043  0.030532 -0.002082)
 30:    460.48   0.000904    4.57  0.000612  (-0.003074  0.008290 -0.023114)
 31:    468.18   0.000481    2.43  0.000320  (-0.009682 -0.015044  0.000630)
 32:    478.78   0.000329    1.66  0.000214  ( 0.007571  0.006194  0.010892)
 33:    490.88   0.001055    5.33  0.000671  ( 0.023059  0.007051 -0.009447)
 34:    547.74   0.001928    9.74  0.001098  ( 0.019246  0.026401 -0.005557)
 35:    579.50   0.000094    0.47  0.000050  ( 0.001568 -0.005936 -0.003566)
 36:    597.58   0.006010   30.37  0.003139  (-0.047075  0.030303  0.002043)
 37:    609.24   0.001415    7.15  0.000725  (-0.000223  0.003072 -0.026745)
 38:    655.20   0.003416   17.26  0.001627  (-0.000741 -0.025386 -0.031337)
 39:    768.40   0.000230    1.16  0.000093  (-0.004641  0.007492  0.003966)
 40:    780.30   0.002799   14.15  0.001119  ( 0.008353 -0.023365 -0.022443)
 41:    803.59   0.002720   13.75  0.001056  (-0.005165  0.016294 -0.027644)
 42:    834.00   0.007018   35.47  0.002626  (-0.023764  0.026846  0.036616)
 43:    927.30   0.014478   73.16  0.004872  ( 0.060953  0.029503  0.016926)
 44:    957.85   0.003539   17.88  0.001153  ( 0.015241 -0.019520 -0.023229)
 45:    966.91   0.000612    3.10  0.000198  ( 0.007780  0.011615  0.001492)
 46:    976.47   0.006517   32.94  0.002083  (-0.005891 -0.039439  0.022196)
 47:    992.60   0.002351   11.88  0.000739  ( 0.005699  0.005068  0.026096)
 48:   1004.66   0.007415   37.47  0.002303  (-0.000568 -0.047651 -0.005675)
 49:   1058.06   0.007234   36.56  0.002134  ( 0.020652 -0.022610 -0.034582)
 50:   1064.93   0.007264   36.71  0.002129  ( 0.037655 -0.026655  0.000384)
 51:   1069.95   0.000264    1.33  0.000077  ( 0.000541  0.008045 -0.003453)
 52:   1079.86   0.003251   16.43  0.000940  ( 0.000288 -0.001388  0.030621)
 53:   1100.33   0.000006    0.03  0.000002  ( 0.000497 -0.000837 -0.000838)
 54:   1117.58   0.000037    0.19  0.000010  (-0.000676 -0.002443  0.001990)
 55:   1126.43   0.000479    2.42  0.000133  ( 0.000288  0.000829 -0.011490)
 56:   1158.99   0.039752  200.89  0.010703  (-0.088541  0.038074  0.037606)
 57:   1167.06   0.000272    1.37  0.000073  ( 0.007680 -0.002984  0.002195)
 58:   1177.20   0.000896    4.53  0.000238  ( 0.014987 -0.000383  0.003576)
 59:   1179.69   0.001789    9.04  0.000473  (-0.020420  0.005942  0.004593)
 60:   1228.71   0.001556    7.86  0.000395  ( 0.018077  0.005905 -0.005794)
 61:   1271.09   0.014984   75.72  0.003679  (-0.026542  0.054441 -0.003223)
 62:   1274.83   0.004032   20.38  0.000987  ( 0.027973 -0.014191 -0.001751)
 63:   1279.99   0.011653   58.89  0.002841  (-0.039107 -0.033958 -0.012591)
 64:   1302.21   0.020299  102.58  0.004865  (-0.008974  0.066887  0.017609)
 65:   1311.43   0.000105    0.53  0.000025  ( 0.004375 -0.002408  0.000123)
 66:   1350.11   0.005137   25.96  0.001187  ( 0.000256 -0.029816 -0.017271)
 67:   1380.67   0.006853   34.63  0.001549  (-0.032280  0.011738  0.019213)
 68:   1390.13   0.009113   46.05  0.002046  ( 0.036838  0.001560 -0.026196)
 69:   1395.79   0.006244   31.55  0.001396  ( 0.012494 -0.023028 -0.026637)
 70:   1409.49   0.005077   25.66  0.001124  (-0.026774 -0.017975  0.009176)
 71:   1440.70   0.016967   85.74  0.003675  (-0.052352  0.020150  0.022987)
 72:   1449.99   0.008768   44.31  0.001887  ( 0.036426 -0.018326  0.014976)
 73:   1450.44   0.003249   16.42  0.000699  (-0.000407 -0.016281 -0.020828)
 74:   1468.27   0.009703   49.03  0.002062  ( 0.008137 -0.044394 -0.005016)
 75:   1472.14   0.001144    5.78  0.000242  (-0.007030  0.012675  0.005688)
 76:   1475.01   0.024023  121.40  0.005083  ( 0.016703 -0.067567 -0.015436)
 77:   1478.33   0.007827   39.55  0.001652  ( 0.026946  0.025429 -0.016718)
 78:   1484.91   0.007231   36.54  0.001520  ( 0.002131 -0.019414 -0.033737)
 79:   1489.36   0.003469   17.53  0.000727  ( 0.002619  0.026486  0.004289)
 80:   1493.61   0.000038    0.19  0.000008  (-0.000508 -0.002742  0.000485)
 81:   1494.88   0.001986   10.03  0.000415  ( 0.007129 -0.000218  0.019069)
 82:   1496.05   0.001263    6.38  0.000263  (-0.010568  0.008389 -0.009022)
 83:   1497.79   0.000199    1.01  0.000042  ( 0.000348 -0.003889 -0.005125)
 84:   1500.51   0.002158   10.91  0.000449  ( 0.007152  0.000456  0.019936)
 85:   1501.46   0.009012   45.54  0.001873  ( 0.002371 -0.043087 -0.003291)
 86:   1504.13   0.005601   28.30  0.001162  (-0.008297  0.008497 -0.031952)
 87:   1511.33   0.009007   45.52  0.001860  ( 0.019330  0.038471 -0.002476)
 88:   1517.61   0.001662    8.40  0.000342  (-0.003226  0.017431  0.005247)
 89:   1525.15   0.016801   84.90  0.003438  ( 0.054240  0.000246  0.022260)
 90:   1526.96   0.004616   23.33  0.000943  (-0.011274  0.016849  0.023073)
 91:   1530.33   0.011002   55.60  0.002244  ( 0.027620  0.032268  0.020963)
 92:   1536.84   0.015601   78.84  0.003168  (-0.017385 -0.041245  0.034123)
 93:   1551.55   0.012001   60.65  0.002414  (-0.037223  0.031986 -0.002271)
 94:   1663.15   0.068143  344.37  0.012786  ( 0.079939 -0.071587 -0.035651)
 95:   1675.40   0.234866  1186.92  0.043747  (-0.113858  0.062882  0.163795)
 96:   3041.77   0.007355   37.17  0.000755  (-0.015863  0.005871 -0.021643)
 97:   3046.30   0.019055   96.30  0.001952  (-0.038738 -0.003700  0.020921)
 98:   3061.33   0.000640    3.24  0.000065  (-0.006046 -0.003631  0.003943)
 99:   3097.19   0.002645   13.37  0.000267  (-0.014362  0.005209  0.005754)
100:   3097.66   0.002077   10.50  0.000209  ( 0.000854  0.000422  0.014435)
101:   3100.07   0.000961    4.85  0.000097  ( 0.001619 -0.009155 -0.003202)
102:   3103.21   0.009770   49.37  0.000982  ( 0.000014 -0.031258 -0.002312)
103:   3103.72   0.001580    7.99  0.000159  ( 0.008421 -0.005668 -0.007473)
104:   3109.46   0.003752   18.96  0.000377  ( 0.001316 -0.018254 -0.006448)
105:   3112.12   0.000778    3.93  0.000078  (-0.000426 -0.008726 -0.001295)
106:   3117.87   0.004821   24.36  0.000483  (-0.000403  0.017512 -0.013255)
107:   3124.65   0.001363    6.89  0.000136  ( 0.007986 -0.000606  0.008485)
108:   3146.41   0.000550    2.78  0.000055  (-0.006008 -0.004105  0.001268)
109:   3161.75   0.000401    2.03  0.000040  (-0.003927 -0.002567  0.004191)
110:   3165.24   0.002686   13.57  0.000265  ( 0.006063 -0.013944 -0.005797)
111:   3179.03   0.001365    6.90  0.000134  (-0.007911  0.005908  0.006043)
112:   3188.78   0.000977    4.94  0.000096  (-0.009733  0.000077  0.000931)
113:   3189.54   0.002421   12.24  0.000237  ( 0.010365 -0.001815  0.011233)
114:   3193.54   0.000018    0.09  0.000002  ( 0.000072  0.001165  0.000632)
115:   3194.66   0.000141    0.71  0.000014  ( 0.003104 -0.001064 -0.001744)
116:   3199.93   0.000813    4.11  0.000079  (-0.000518  0.008853 -0.000782)
117:   3200.76   0.001148    5.80  0.000112  (-0.007897 -0.002257  0.006666)
118:   3203.68   0.000492    2.49  0.000048  ( 0.004987  0.003159  0.003618)
119:   3210.90   0.000849    4.29  0.000083  (-0.005641 -0.000707 -0.007086)

--------------------------
THERMOCHEMISTRY AT 298.15K
--------------------------

Temperature         ... 298.15 K
Pressure            ... 1.00 atm
Total Mass          ... 230.33 AMU

Throughout the following assumptions are being made:
  (1) The electronic state is orbitally nondegenerate
  (2) There are no thermally accessible electronically excited states
  (3) Hindered rotations indicated by low frequency modes are not
      treated as such but are treated as vibrations and this may
      cause some error
  (4) All equations used are the standard statistical mechanics
      equations for an ideal gas
  (5) All vibrations are strictly harmonic

freq.      19.65  E(vib)   ...       0.56
freq.      40.78  E(vib)   ...       0.54
freq.      42.56  E(vib)   ...       0.53
freq.      54.21  E(vib)   ...       0.52
freq.      68.47  E(vib)   ...       0.50
freq.      83.06  E(vib)   ...       0.48
freq.     102.00  E(vib)   ...       0.46
freq.     122.38  E(vib)   ...       0.43
freq.     127.14  E(vib)   ...       0.43
freq.     181.89  E(vib)   ...       0.37
freq.     184.37  E(vib)   ...       0.37
freq.     218.33  E(vib)   ...       0.33
freq.     240.87  E(vib)   ...       0.31
freq.     248.04  E(vib)   ...       0.31
freq.     261.73  E(vib)   ...       0.30
freq.     311.68  E(vib)   ...       0.25
freq.     318.58  E(vib)   ...       0.25
freq.     327.82  E(vib)   ...       0.24
freq.     369.83  E(vib)   ...       0.21
freq.     376.52  E(vib)   ...       0.21
freq.     383.42  E(vib)   ...       0.20
freq.     405.09  E(vib)   ...       0.19
freq.     430.26  E(vib)   ...       0.18
freq.     460.48  E(vib)   ...       0.16
freq.     468.18  E(vib)   ...       0.16
freq.     478.78  E(vib)   ...       0.15
freq.     490.88  E(vib)   ...       0.14
freq.     547.74  E(vib)   ...       0.12
freq.     579.50  E(vib)   ...       0.11
freq.     597.58  E(vib)   ...       0.10
freq.     609.24  E(vib)   ...       0.10
freq.     655.20  E(vib)   ...       0.08
freq.     768.40  E(vib)   ...       0.06
freq.     780.30  E(vib)   ...       0.05
freq.     803.59  E(vib)   ...       0.05
freq.     834.00  E(vib)   ...       0.04
freq.     927.30  E(vib)   ...       0.03
freq.     957.85  E(vib)   ...       0.03
freq.     966.91  E(vib)   ...       0.03
freq.     976.47  E(vib)   ...       0.03
freq.     992.60  E(vib)   ...       0.02
freq.    1004.66  E(vib)   ...       0.02
freq.    1058.06  E(vib)   ...       0.02
freq.    1064.93  E(vib)   ...       0.02
freq.    1069.95  E(vib)   ...       0.02
freq.    1079.86  E(vib)   ...       0.02
freq.    1100.33  E(vib)   ...       0.02
freq.    1117.58  E(vib)   ...       0.01
freq.    1126.43  E(vib)   ...       0.01
freq.    1158.99  E(vib)   ...       0.01
freq.    1167.06  E(vib)   ...       0.01
freq.    1177.20  E(vib)   ...       0.01
freq.    1179.69  E(vib)   ...       0.01
freq.    1228.71  E(vib)   ...       0.01
freq.    1271.09  E(vib)   ...       0.01
freq.    1274.83  E(vib)   ...       0.01
freq.    1279.99  E(vib)   ...       0.01
freq.    1302.21  E(vib)   ...       0.01
freq.    1311.43  E(vib)   ...       0.01
freq.    1350.11  E(vib)   ...       0.01
freq.    1380.67  E(vib)   ...       0.01
freq.    1390.13  E(vib)   ...       0.00
freq.    1395.79  E(vib)   ...       0.00
freq.    1409.49  E(vib)   ...       0.00
freq.    1440.70  E(vib)   ...       0.00
freq.    1449.99  E(vib)   ...       0.00
freq.    1450.44  E(vib)   ...       0.00
freq.    1468.27  E(vib)   ...       0.00
freq.    1472.14  E(vib)   ...       0.00
freq.    1475.01  E(vib)   ...       0.00
freq.    1478.33  E(vib)   ...       0.00
freq.    1484.91  E(vib)   ...       0.00
freq.    1489.36  E(vib)   ...       0.00
freq.    1493.61  E(vib)   ...       0.00
freq.    1494.88  E(vib)   ...       0.00
freq.    1496.05  E(vib)   ...       0.00
freq.    1497.79  E(vib)   ...       0.00
freq.    1500.51  E(vib)   ...       0.00
freq.    1501.46  E(vib)   ...       0.00
freq.    1504.13  E(vib)   ...       0.00
freq.    1511.33  E(vib)   ...       0.00
freq.    1517.61  E(vib)   ...       0.00
freq.    1525.15  E(vib)   ...       0.00
freq.    1526.96  E(vib)   ...       0.00
freq.    1530.33  E(vib)   ...       0.00
freq.    1536.84  E(vib)   ...       0.00
freq.    1551.55  E(vib)   ...       0.00
freq.    1663.15  E(vib)   ...       0.00
freq.    1675.40  E(vib)   ...       0.00
freq.    3041.77  E(vib)   ...       0.00
freq.    3046.30  E(vib)   ...       0.00
freq.    3061.33  E(vib)   ...       0.00
freq.    3097.19  E(vib)   ...       0.00
freq.    3097.66  E(vib)   ...       0.00
freq.    3100.07  E(vib)   ...       0.00
freq.    3103.21  E(vib)   ...       0.00
freq.    3103.72  E(vib)   ...       0.00
freq.    3109.46  E(vib)   ...       0.00
freq.    3112.12  E(vib)   ...       0.00
freq.    3117.87  E(vib)   ...       0.00
freq.    3124.65  E(vib)   ...       0.00
freq.    3146.41  E(vib)   ...       0.00
freq.    3161.75  E(vib)   ...       0.00
freq.    3165.24  E(vib)   ...       0.00
freq.    3179.03  E(vib)   ...       0.00
freq.    3188.78  E(vib)   ...       0.00
freq.    3189.54  E(vib)   ...       0.00
freq.    3193.54  E(vib)   ...       0.00
freq.    3194.66  E(vib)   ...       0.00
freq.    3199.93  E(vib)   ...       0.00
freq.    3200.76  E(vib)   ...       0.00
freq.    3203.68  E(vib)   ...       0.00
freq.    3210.90  E(vib)   ...       0.00

------------
INNER ENERGY
------------

The inner energy is: U= E(el) + E(ZPE) + E(vib) + E(rot) + E(trans)
    E(el)   - is the total energy from the electronic structure calculation
              = E(kin-el) + E(nuc-el) + E(el-el) + E(nuc-nuc)
    E(ZPE)  - the the zero temperature vibrational energy from the frequency calculation
    E(vib)  - the the finite temperature correction to E(ZPE) due to population
              of excited vibrational states
    E(rot)  - is the rotational thermal energy
    E(trans)- is the translational thermal energy

Summary of contributions to the inner energy U:
Electronic energy                ...   -747.82533461 Eh
Zero point energy                ...      0.36176917 Eh     227.01 kcal/mol
Thermal vibrational correction   ...      0.01589062 Eh       9.97 kcal/mol
Thermal rotational correction    ...      0.00141627 Eh       0.89 kcal/mol
Thermal translational correction ...      0.00141627 Eh       0.89 kcal/mol
-----------------------------------------------------------------------
Total thermal energy                   -747.44484228 Eh

Summary of corrections to the electronic energy:
(perhaps to be used in another calculation)
Total thermal correction                  0.01872316 Eh      11.75 kcal/mol
Non-thermal (ZPE) correction              0.36176917 Eh     227.01 kcal/mol
-----------------------------------------------------------------------
Total correction                          0.38049233 Eh     238.76 kcal/mol

Rotational constants in cm-1:     0.025303     0.008717     0.007444

                             ****ORCA TERMINATED NORMALLY****
TOTAL RUN TIME: 0 days 1 hours 6 minutes 41 seconds 158 msec
