                         Program Version 5.0.4 -  RELEASE  -
|  1> ! OPT FREQ B3LYP 6-31G(d) D4 AUTOAUX
|  2>
|  3> %PAL NPROCS 4 END
|  4>
|  5> %maxcore 3375
|  6>
|  7> *xyzfile 0 1 /users/fjb15167/WWenergy/structures/Nl.xyz
|  8>
|  9>                          ****END OF INPUT****
 Total Charge           Charge          ....    0
 Multiplicity           Mult            ....    1
 Number of Electrons    NEL             ....  110
Dispersion correction           -0.057465491
FINAL SINGLE POINT ENERGY      -652.720862148181
Dispersion correction            ... Starting D4
Dispersion correction           -0.057120044
FINAL SINGLE POINT ENERGY      -652.721473881293
Dispersion correction            ... Starting D4
Dispersion correction           -0.057401267
FINAL SINGLE POINT ENERGY      -652.721509466215
Dispersion correction            ... Starting D4
FINAL SINGLE POINT ENERGY      -652.721554102604
FINAL SINGLE POINT ENERGY      -652.721582896870
FINAL SINGLE POINT ENERGY      -652.721598509843
Dispersion correction           -0.057280236
FINAL SINGLE POINT ENERGY      -652.721602955786
Dispersion correction            ... Starting D4
Dispersion correction           -0.057267056
FINAL SINGLE POINT ENERGY      -652.721604997707
Dispersion correction            ... Starting D4
                    ***********************HURRAY********************

CARTESIAN COORDINATES (ANGSTROEM)
---------------------------------
  C     -1.249552   -3.023780   -0.222832
  H     -0.314213   -3.148991   -0.779642
  H     -2.046202   -3.548927   -0.751425
  H     -1.116273   -3.489338    0.761145
  C     -1.684922   -1.567838   -0.094633
  O     -2.805840   -1.221375   -0.451032
  N     -0.793451   -0.654496    0.431781
  C      0.423012   -1.052601    1.139938
  H      0.259191   -1.040707    2.224670
  H      0.699497   -2.067661    0.853902
  C      1.589876   -0.079732    0.904366
  N      2.290306   -0.192310   -0.263971
  O      1.855748    0.761557    1.760419
  C      1.984203   -1.138516   -1.323525
  H      2.178947   -0.663871   -2.291599
  H      2.603387   -2.045394   -1.259175
  H      0.931233   -1.414952   -1.306680
  C      3.421630    0.693641   -0.496147
  H      3.216341    1.363924   -1.341346
  H      3.584763    1.284893    0.403879
  H      4.322340    0.109205   -0.723539
  C     -1.337452    0.678028    0.762794
  H     -0.643828    1.140154    1.471751
  C     -1.547505    1.615541   -0.437832
  H     -2.247968    1.117832   -1.117230
  C     -2.194102    2.914369    0.062628
  H     -2.406003    3.592637   -0.772089
  H     -3.139743    2.717143    0.581929
  H     -1.529782    3.442635    0.759995
  H     -2.299265    0.532250    1.268274
  C     -0.246653    1.907385   -1.192960
  H      0.500004    2.368614   -0.533452
  H      0.187163    0.993121   -1.608374
  H     -0.430888    2.596563   -2.025989

 Multiplicity           Mult            ....    1
 Number of Electrons    NEL             ....  110
 Basis Dimension        Dim             ....  236

ORBITAL ENERGIES
----------------

  NO   OCC          E(Eh)            E(eV)
   0   2.0000     -19.109291      -519.9902
   1   2.0000     -19.103338      -519.8283
   2   2.0000     -14.366280      -390.9264
   3   2.0000     -14.357636      -390.6911
   4   2.0000     -10.283416      -279.8260
   5   2.0000     -10.279113      -279.7089
   6   2.0000     -10.226202      -278.2691
   7   2.0000     -10.222984      -278.1815
   8   2.0000     -10.207451      -277.7589
   9   2.0000     -10.196898      -277.4717
  10   2.0000     -10.184715      -277.1402
  11   2.0000     -10.169433      -276.7243
  12   2.0000     -10.155431      -276.3433
  13   2.0000     -10.155238      -276.3381
  14   2.0000      -1.034647       -28.1542
  15   2.0000      -1.026493       -27.9323
  16   2.0000      -0.938779       -25.5455
  17   2.0000      -0.927400       -25.2358
  18   2.0000      -0.793452       -21.5909
  19   2.0000      -0.747948       -20.3527
  20   2.0000      -0.741592       -20.1797
  21   2.0000      -0.726289       -19.7633
  22   2.0000      -0.687034       -18.6951
  23   2.0000      -0.673604       -18.3297
  24   2.0000      -0.665891       -18.1198
  25   2.0000      -0.573874       -15.6159
  26   2.0000      -0.552462       -15.0333
  27   2.0000      -0.531820       -14.4716
  28   2.0000      -0.510373       -13.8880
  29   2.0000      -0.499916       -13.6034
  30   2.0000      -0.486061       -13.2264
  31   2.0000      -0.478704       -13.0262
  32   2.0000      -0.459877       -12.5139
  33   2.0000      -0.447768       -12.1844
  34   2.0000      -0.440384       -11.9835
  35   2.0000      -0.429219       -11.6796
  36   2.0000      -0.416164       -11.3244
  37   2.0000      -0.414693       -11.2844
  38   2.0000      -0.411136       -11.1876
  39   2.0000      -0.403824       -10.9886
  40   2.0000      -0.401288       -10.9196
  41   2.0000      -0.394943       -10.7469
  42   2.0000      -0.382735       -10.4148
  43   2.0000      -0.380528       -10.3547
  44   2.0000      -0.374781       -10.1983
  45   2.0000      -0.369915       -10.0659
  46   2.0000      -0.362504        -9.8642
  47   2.0000      -0.351508        -9.5650
  48   2.0000      -0.324003        -8.8166
  49   2.0000      -0.323441        -8.8013
  50   2.0000      -0.313008        -8.5174
  51   2.0000      -0.258334        -7.0296
  52   2.0000      -0.244071        -6.6415
  53   2.0000      -0.242462        -6.5977
  54   2.0000      -0.232740        -6.3332
  55   0.0000       0.013640         0.3712
  56   0.0000       0.025753         0.7008
  57   0.0000       0.070393         1.9155
  58   0.0000       0.096886         2.6364
  59   0.0000       0.105834         2.8799

MULLIKEN ATOMIC CHARGES
-----------------------
   0 C :   -0.560368
   1 H :    0.161757
   2 H :    0.190615
   3 H :    0.172579
   4 C :    0.525190
   5 O :   -0.461054
   6 N :   -0.392445
   7 C :   -0.245960
   8 H :    0.178944
   9 H :    0.164817
  10 C :    0.535882
  11 N :   -0.363718
  12 O :   -0.476786
  13 C :   -0.334102
  14 H :    0.167900
  15 H :    0.157405
  16 H :    0.180587
  17 C :   -0.326515
  18 H :    0.158240
  19 H :    0.205466
  20 H :    0.152831
  21 C :   -0.149455
  22 H :    0.166411
  23 C :   -0.069049
  24 H :    0.159025
  25 C :   -0.449634
  26 H :    0.141638
  27 H :    0.145269
  28 H :    0.140274
  29 H :    0.155838
  30 C :   -0.459596
  31 H :    0.148341
  32 H :    0.141498
  33 H :    0.138176
Sum of atomic charges:   -0.0000000

LOEWDIN ATOMIC CHARGES
----------------------
   0 C :   -0.395664
   1 H :    0.134601
   2 H :    0.154492
   3 H :    0.143960
   4 C :    0.105471
   5 O :   -0.267981
   6 N :   -0.091253
   7 C :   -0.177919
   8 H :    0.140529
   9 H :    0.138949
  10 C :    0.096834
  11 N :   -0.080350
  12 O :   -0.279155
  13 C :   -0.281675
  14 H :    0.135480
  15 H :    0.123226
  16 H :    0.139503
  17 C :   -0.278816
  18 H :    0.126258
  19 H :    0.157966
  20 H :    0.124770
  21 C :   -0.153805
  22 H :    0.136972
  23 C :   -0.133735
  24 H :    0.133859
  25 C :   -0.357558
  26 H :    0.124483
  27 H :    0.124828
  28 H :    0.121435
  29 H :    0.131280
  30 C :   -0.365301
  31 H :    0.124932
  32 H :    0.120794
  33 H :    0.122591

  Mayer bond orders larger than 0.100000
B(  0-C ,  1-H ) :   0.9255 B(  0-C ,  2-H ) :   0.9389 B(  0-C ,  3-H ) :   0.9301
B(  0-C ,  4-C ) :   0.9735 B(  4-C ,  5-O ) :   1.8484 B(  4-C ,  6-N ) :   1.1091
B(  6-N ,  7-C ) :   0.9614 B(  6-N , 21-C ) :   0.9104 B(  7-C ,  8-H ) :   0.9150
B(  7-C ,  9-H ) :   0.9100 B(  7-C , 10-C ) :   0.9300 B( 10-C , 11-N ) :   1.1524
B( 10-C , 12-O ) :   1.7938 B( 11-N , 12-O ) :   0.1025 B( 11-N , 13-C ) :   0.9596
B( 11-N , 17-C ) :   0.9541 B( 13-C , 14-H ) :   0.9374 B( 13-C , 15-H ) :   0.9337
B( 13-C , 16-H ) :   0.9175 B( 17-C , 18-H ) :   0.9370 B( 17-C , 19-H ) :   0.9182
B( 17-C , 20-H ) :   0.9418 B( 21-C , 22-H ) :   0.9128 B( 21-C , 23-C ) :   0.9935
B( 21-C , 29-H ) :   0.9236 B( 23-C , 24-H ) :   0.9201 B( 23-C , 25-C ) :   1.0053
B( 23-C , 30-C ) :   1.0116 B( 25-C , 26-H ) :   0.9505 B( 25-C , 27-H ) :   0.9483
B( 25-C , 28-H ) :   0.9476 B( 30-C , 31-H ) :   0.9431 B( 30-C , 32-H ) :   0.9423
B( 30-C , 33-H ) :   0.9502

Dispersion correction           -0.057273129
FINAL SINGLE POINT ENERGY      -652.721605877604

DIPOLE MOMENT
-------------
                                X             Y             Z
Electronic contribution:     -1.16327      -4.80293       5.74789
Nuclear contribution   :      2.34923       3.96396      -6.37163
                        -----------------------------------------
Total Dipole Moment    :      1.18596      -0.83897      -0.62373
                        -----------------------------------------
Magnitude (a.u.)       :      1.58095
Magnitude (Debye)      :      4.01846

Dispersion correction in the Hessian             ... Starting D4

VIBRATIONAL FREQUENCIES
-----------------------

Scaling factor for frequencies =  1.000000000  (already applied!)

   0:         0.00 cm**-1
   1:         0.00 cm**-1
   2:         0.00 cm**-1
   3:         0.00 cm**-1
   4:         0.00 cm**-1
   5:         0.00 cm**-1
   6:        40.77 cm**-1
   7:        52.80 cm**-1
   8:        68.49 cm**-1
   9:        73.72 cm**-1
  10:        81.06 cm**-1
  11:       107.55 cm**-1
  12:       113.33 cm**-1
  13:       131.15 cm**-1
  14:       153.49 cm**-1
  15:       181.40 cm**-1
  16:       187.37 cm**-1
  17:       228.00 cm**-1
  18:       235.14 cm**-1
  19:       242.59 cm**-1
  20:       270.25 cm**-1
  21:       297.81 cm**-1
  22:       324.95 cm**-1
  23:       347.37 cm**-1
  24:       371.76 cm**-1
  25:       414.31 cm**-1
  26:       417.37 cm**-1
  27:       429.98 cm**-1
  28:       462.02 cm**-1
  29:       511.90 cm**-1
  30:       563.20 cm**-1
  31:       608.60 cm**-1
  32:       632.06 cm**-1
  33:       706.79 cm**-1
  34:       769.63 cm**-1
  35:       820.57 cm**-1
  36:       829.20 cm**-1
  37:       913.44 cm**-1
  38:       939.83 cm**-1
  39:       951.57 cm**-1
  40:       978.48 cm**-1
  41:       982.17 cm**-1
  42:       997.42 cm**-1
  43:      1009.97 cm**-1
  44:      1062.21 cm**-1
  45:      1086.01 cm**-1
  46:      1091.72 cm**-1
  47:      1137.86 cm**-1
  48:      1150.75 cm**-1
  49:      1158.69 cm**-1
  50:      1180.39 cm**-1
  51:      1202.61 cm**-1
  52:      1208.68 cm**-1
  53:      1246.00 cm**-1
  54:      1272.00 cm**-1
  55:      1303.18 cm**-1
  56:      1335.20 cm**-1
  57:      1358.57 cm**-1
  58:      1382.37 cm**-1
  59:      1398.98 cm**-1
  60:      1409.41 cm**-1
  61:      1423.89 cm**-1
  62:      1430.48 cm**-1
  63:      1444.00 cm**-1
  64:      1447.33 cm**-1
  65:      1456.75 cm**-1
  66:      1468.60 cm**-1
  67:      1494.81 cm**-1
  68:      1502.38 cm**-1
  69:      1511.13 cm**-1
  70:      1516.30 cm**-1
  71:      1517.63 cm**-1
  72:      1519.82 cm**-1
  73:      1523.42 cm**-1
  74:      1526.81 cm**-1
  75:      1533.08 cm**-1
  76:      1534.84 cm**-1
  77:      1540.49 cm**-1
  78:      1544.79 cm**-1
  79:      1560.01 cm**-1
  80:      1758.65 cm**-1
  81:      1765.74 cm**-1
  82:      3023.05 cm**-1
  83:      3034.10 cm**-1
  84:      3035.64 cm**-1
  85:      3043.08 cm**-1
  86:      3055.16 cm**-1
  87:      3056.20 cm**-1
  88:      3060.23 cm**-1
  89:      3077.01 cm**-1
  90:      3084.08 cm**-1
  91:      3094.89 cm**-1
  92:      3097.56 cm**-1
  93:      3105.36 cm**-1
  94:      3110.87 cm**-1
  95:      3115.06 cm**-1
  96:      3122.58 cm**-1
  97:      3133.23 cm**-1
  98:      3154.49 cm**-1
  99:      3172.65 cm**-1
 100:      3189.06 cm**-1
 101:      3191.91 cm**-1

IR SPECTRUM
-----------

 Mode   freq       eps      Int      T**2         TX        TY        TZ
       cm**-1   L/(mol*cm) km/mol    a.u.
----------------------------------------------------------------------------
  6:     40.77   0.000302    1.53  0.002315  ( 0.021106 -0.031092  0.030048)
  7:     52.80   0.000487    2.46  0.002877  ( 0.041133 -0.022154  0.026343)
  8:     68.49   0.000231    1.17  0.001052  ( 0.015686 -0.004381 -0.028056)
  9:     73.72   0.000681    3.44  0.002881  (-0.052065  0.009211  0.009257)
 10:     81.06   0.000664    3.36  0.002557  (-0.032156  0.002350  0.038950)
 11:    107.55   0.000392    1.98  0.001137  (-0.003972 -0.020318  0.026621)
 12:    113.33   0.000125    0.63  0.000344  (-0.004749 -0.017848 -0.001642)
 13:    131.15   0.000075    0.38  0.000178  (-0.008157  0.010538  0.000891)
 14:    153.49   0.000384    1.94  0.000781  ( 0.022332 -0.013822  0.009539)
 15:    181.40   0.000221    1.12  0.000381  (-0.003390  0.016185 -0.010361)
 16:    187.37   0.000010    0.05  0.000017  (-0.001538  0.003253  0.001925)
 17:    228.00   0.000300    1.52  0.000411  (-0.003394  0.019897 -0.001767)
 18:    235.14   0.000858    4.34  0.001139  (-0.014702  0.030084 -0.004206)
 19:    242.59   0.001079    5.45  0.001388  ( 0.035604  0.002622  0.010632)
 20:    270.25   0.000210    1.06  0.000243  ( 0.014785  0.003787  0.003127)
 21:    297.81   0.000586    2.96  0.000614  ( 0.001457  0.024483 -0.003548)
 22:    324.95   0.000171    0.86  0.000164  ( 0.007704  0.005040 -0.008898)
 23:    347.37   0.002781   14.06  0.002499  ( 0.035920  0.032053 -0.013452)
 24:    371.76   0.000763    3.86  0.000641  ( 0.015114 -0.007049 -0.019044)
 25:    414.31   0.000232    1.17  0.000175  ( 0.010257 -0.004389  0.007079)
 26:    417.37   0.000274    1.39  0.000205  ( 0.012505 -0.000859 -0.006936)
 27:    429.98   0.000988    4.99  0.000717  ( 0.017791  0.019880 -0.002343)
 28:    462.02   0.000653    3.30  0.000441  (-0.016524 -0.010413 -0.007705)
 29:    511.90   0.001349    6.82  0.000822  ( 0.007757 -0.025316  0.011006)
 30:    563.20   0.002098   10.60  0.001162  ( 0.014643  0.011255  0.028656)
 31:    608.60   0.000770    3.89  0.000395  ( 0.008325  0.003512 -0.017701)
 32:    632.06   0.003495   17.66  0.001725  (-0.035882 -0.008495  0.019126)
 33:    706.79   0.001863    9.42  0.000823  (-0.000767 -0.028673 -0.000057)
 34:    769.63   0.000420    2.12  0.000170  ( 0.011684 -0.005281 -0.002446)
 35:    820.57   0.003721   18.81  0.001415  (-0.031483  0.005159  0.019933)
 36:    829.20   0.000397    2.00  0.000149  (-0.009895  0.005410 -0.004699)
 37:    913.44   0.000288    1.45  0.000098  ( 0.005384 -0.007600 -0.003388)
 38:    939.83   0.000420    2.12  0.000140  ( 0.003513 -0.010788 -0.003298)
 39:    951.57   0.000306    1.55  0.000100  (-0.008350  0.001841  0.005232)
 40:    978.48   0.000856    4.32  0.000273  (-0.001877 -0.016413  0.000069)
 41:    982.17   0.001606    8.11  0.000510  ( 0.009530  0.020003  0.004383)
 42:    997.42   0.002089   10.56  0.000653  (-0.025294 -0.003691 -0.000320)
 43:   1009.97   0.008013   40.49  0.002476  (-0.038822 -0.018948  0.024688)
 44:   1062.21   0.001133    5.73  0.000333  (-0.009950 -0.005688  0.014197)
 45:   1086.01   0.003106   15.69  0.000892  ( 0.008137  0.007362  0.027784)
 46:   1091.72   0.001239    6.26  0.000354  ( 0.009184  0.016044  0.003516)
 47:   1137.86   0.000418    2.11  0.000115  ( 0.002412 -0.006068 -0.008489)
 48:   1150.75   0.006520   32.95  0.001768  (-0.030789  0.027611  0.007611)
 49:   1158.69   0.002924   14.78  0.000788  (-0.021175  0.013374  0.012664)
 50:   1180.39   0.001059    5.35  0.000280  ( 0.010951 -0.001250  0.012585)
 51:   1202.61   0.006843   34.58  0.001776  ( 0.015509 -0.006572 -0.038626)
 52:   1208.68   0.000984    4.97  0.000254  ( 0.001749  0.009925 -0.012349)
 53:   1246.00   0.002709   13.69  0.000678  (-0.011718  0.022928 -0.003933)
 54:   1272.00   0.023421  118.36  0.005746  (-0.048442 -0.054510 -0.020685)
 55:   1303.18   0.010302   52.06  0.002467  (-0.036848 -0.032171  0.008619)
 56:   1335.20   0.005353   27.05  0.001251  (-0.011840 -0.033314 -0.001084)
 57:   1358.57   0.000241    1.22  0.000055  ( 0.002862  0.005666  0.003870)
 58:   1382.37   0.004676   23.63  0.001055  ( 0.004224  0.032207 -0.000607)
 59:   1398.98   0.004013   20.28  0.000895  ( 0.019548  0.021629  0.006724)
 60:   1409.41   0.002910   14.70  0.000644  (-0.024113 -0.007737 -0.001705)
 61:   1423.89   0.010209   51.59  0.002237  ( 0.021061  0.042345 -0.000920)
 62:   1430.48   0.001718    8.68  0.000375  (-0.017543 -0.007380  0.003538)
 63:   1444.00   0.011483   58.03  0.002482  (-0.038025 -0.029625  0.012569)
 64:   1447.33   0.008878   44.87  0.001914  (-0.011540  0.022790  0.035521)
 65:   1456.75   0.005177   26.16  0.001109  (-0.028528 -0.006619  0.015851)
 66:   1468.60   0.010057   50.82  0.002137  (-0.011888 -0.034469 -0.028416)
 67:   1494.81   0.002249   11.37  0.000470  (-0.019222 -0.009097  0.004162)
 68:   1502.38   0.001085    5.48  0.000225  (-0.010339  0.005296 -0.009504)
 69:   1511.13   0.001076    5.44  0.000222  (-0.003129 -0.012593  0.007331)
 70:   1516.30   0.002551   12.89  0.000525  ( 0.008612 -0.006911 -0.020078)
 71:   1517.63   0.001342    6.78  0.000276  (-0.012645 -0.008122  0.007083)
 72:   1519.82   0.000648    3.28  0.000133  (-0.003877  0.006938  0.008365)
 73:   1523.42   0.001428    7.22  0.000293  ( 0.014016  0.000081  0.009802)
 74:   1526.81   0.002870   14.50  0.000587  ( 0.008136 -0.017425 -0.014721)
 75:   1533.08   0.001716    8.67  0.000349  ( 0.009722 -0.015295  0.004575)
 76:   1534.84   0.001369    6.92  0.000278  ( 0.005002  0.015078  0.005092)
 77:   1540.49   0.003149   15.91  0.000638  (-0.011575  0.003884 -0.022110)
 78:   1544.79   0.000551    2.79  0.000111  ( 0.003213 -0.004288  0.009090)
 79:   1560.01   0.007762   39.22  0.001553  ( 0.026973  0.000587 -0.028718)
 80:   1758.65   0.055037  278.14  0.009766  ( 0.008854  0.048376  0.085718)
 81:   1765.74   0.046511  235.05  0.008220  ( 0.089153 -0.010895  0.012367)
 82:   3023.05   0.009177   46.38  0.000947  ( 0.005521 -0.027862 -0.011855)
 83:   3034.10   0.005126   25.91  0.000527  (-0.011125  0.017555  0.009761)
 84:   3035.64   0.011312   57.17  0.001163  (-0.026443 -0.002223  0.021418)
 85:   3043.08   0.004898   24.75  0.000502  (-0.015723 -0.012717  0.009661)
 86:   3055.16   0.000704    3.56  0.000072  (-0.002366  0.003016 -0.007564)
 87:   3056.20   0.004662   23.56  0.000476  (-0.014411  0.013434 -0.009373)
 88:   3060.23   0.006033   30.49  0.000615  (-0.007909  0.005104  0.022948)
 89:   3077.01   0.000807    4.08  0.000082  ( 0.006313 -0.006346  0.001314)
 90:   3084.08   0.008437   42.64  0.000854  (-0.019417  0.018490 -0.011611)
 91:   3094.89   0.002727   13.78  0.000275  (-0.000731  0.008246 -0.014369)
 92:   3097.56   0.001457    7.36  0.000147  ( 0.010202  0.005341 -0.003762)
 93:   3105.36   0.005710   28.86  0.000574  ( 0.020526 -0.000782  0.012324)
 94:   3110.87   0.009532   48.17  0.000956  ( 0.000175  0.014800 -0.027151)
 95:   3115.06   0.003041   15.37  0.000305  (-0.010577 -0.002319  0.013688)
 96:   3122.58   0.004143   20.94  0.000414  (-0.019277 -0.000025 -0.006516)
 97:   3133.23   0.006936   35.05  0.000691  ( 0.004569 -0.024320 -0.008859)
 98:   3154.49   0.002582   13.05  0.000255  (-0.007049  0.013142  0.005747)
 99:   3172.65   0.001798    9.09  0.000177  (-0.011976 -0.004430 -0.003723)
100:   3189.06   0.000897    4.53  0.000088  (-0.008380 -0.003652 -0.002051)
101:   3191.91   0.000414    2.09  0.000040  ( 0.005424  0.003190  0.000946)

--------------------------
THERMOCHEMISTRY AT 298.15K
--------------------------

Temperature         ... 298.15 K
Pressure            ... 1.00 atm
Total Mass          ... 200.28 AMU

Throughout the following assumptions are being made:
  (1) The electronic state is orbitally nondegenerate
  (2) There are no thermally accessible electronically excited states
  (3) Hindered rotations indicated by low frequency modes are not
      treated as such but are treated as vibrations and this may
      cause some error
  (4) All equations used are the standard statistical mechanics
      equations for an ideal gas
  (5) All vibrations are strictly harmonic

freq.      40.77  E(vib)   ...       0.54
freq.      52.80  E(vib)   ...       0.52
freq.      68.49  E(vib)   ...       0.50
freq.      73.72  E(vib)   ...       0.49
freq.      81.06  E(vib)   ...       0.48
freq.     107.55  E(vib)   ...       0.45
freq.     113.33  E(vib)   ...       0.45
freq.     131.15  E(vib)   ...       0.42
freq.     153.49  E(vib)   ...       0.40
freq.     181.40  E(vib)   ...       0.37
freq.     187.37  E(vib)   ...       0.36
freq.     228.00  E(vib)   ...       0.33
freq.     235.14  E(vib)   ...       0.32
freq.     242.59  E(vib)   ...       0.31
freq.     270.25  E(vib)   ...       0.29
freq.     297.81  E(vib)   ...       0.27
freq.     324.95  E(vib)   ...       0.24
freq.     347.37  E(vib)   ...       0.23
freq.     371.76  E(vib)   ...       0.21
freq.     414.31  E(vib)   ...       0.19
freq.     417.37  E(vib)   ...       0.18
freq.     429.98  E(vib)   ...       0.18
freq.     462.02  E(vib)   ...       0.16
freq.     511.90  E(vib)   ...       0.14
freq.     563.20  E(vib)   ...       0.11
freq.     608.60  E(vib)   ...       0.10
freq.     632.06  E(vib)   ...       0.09
freq.     706.79  E(vib)   ...       0.07
freq.     769.63  E(vib)   ...       0.05
freq.     820.57  E(vib)   ...       0.05
freq.     829.20  E(vib)   ...       0.04
freq.     913.44  E(vib)   ...       0.03
freq.     939.83  E(vib)   ...       0.03
freq.     951.57  E(vib)   ...       0.03
freq.     978.48  E(vib)   ...       0.03
freq.     982.17  E(vib)   ...       0.02
freq.     997.42  E(vib)   ...       0.02
freq.    1009.97  E(vib)   ...       0.02
freq.    1062.21  E(vib)   ...       0.02
freq.    1086.01  E(vib)   ...       0.02
freq.    1091.72  E(vib)   ...       0.02
freq.    1137.86  E(vib)   ...       0.01
freq.    1150.75  E(vib)   ...       0.01
freq.    1158.69  E(vib)   ...       0.01
freq.    1180.39  E(vib)   ...       0.01
freq.    1202.61  E(vib)   ...       0.01
freq.    1208.68  E(vib)   ...       0.01
freq.    1246.00  E(vib)   ...       0.01
freq.    1272.00  E(vib)   ...       0.01
freq.    1303.18  E(vib)   ...       0.01
freq.    1335.20  E(vib)   ...       0.01
freq.    1358.57  E(vib)   ...       0.01
freq.    1382.37  E(vib)   ...       0.01
freq.    1398.98  E(vib)   ...       0.00
freq.    1409.41  E(vib)   ...       0.00
freq.    1423.89  E(vib)   ...       0.00
freq.    1430.48  E(vib)   ...       0.00
freq.    1444.00  E(vib)   ...       0.00
freq.    1447.33  E(vib)   ...       0.00
freq.    1456.75  E(vib)   ...       0.00
freq.    1468.60  E(vib)   ...       0.00
freq.    1494.81  E(vib)   ...       0.00
freq.    1502.38  E(vib)   ...       0.00
freq.    1511.13  E(vib)   ...       0.00
freq.    1516.30  E(vib)   ...       0.00
freq.    1517.63  E(vib)   ...       0.00
freq.    1519.82  E(vib)   ...       0.00
freq.    1523.42  E(vib)   ...       0.00
freq.    1526.81  E(vib)   ...       0.00
freq.    1533.08  E(vib)   ...       0.00
freq.    1534.84  E(vib)   ...       0.00
freq.    1540.49  E(vib)   ...       0.00
freq.    1544.79  E(vib)   ...       0.00
freq.    1560.01  E(vib)   ...       0.00
freq.    1758.65  E(vib)   ...       0.00
freq.    1765.74  E(vib)   ...       0.00
freq.    3023.05  E(vib)   ...       0.00
freq.    3034.10  E(vib)   ...       0.00
freq.    3035.64  E(vib)   ...       0.00
freq.    3043.08  E(vib)   ...       0.00
freq.    3055.16  E(vib)   ...       0.00
freq.    3056.20  E(vib)   ...       0.00
freq.    3060.23  E(vib)   ...       0.00
freq.    3077.01  E(vib)   ...       0.00
freq.    3084.08  E(vib)   ...       0.00
freq.    3094.89  E(vib)   ...       0.00
freq.    3097.56  E(vib)   ...       0.00
freq.    3105.36  E(vib)   ...       0.00
freq.    3110.87  E(vib)   ...       0.00
freq.    3115.06  E(vib)   ...       0.00
freq.    3122.58  E(vib)   ...       0.00
freq.    3133.23  E(vib)   ...       0.00
freq.    3154.49  E(vib)   ...       0.00
freq.    3172.65  E(vib)   ...       0.00
freq.    3189.06  E(vib)   ...       0.00
freq.    3191.91  E(vib)   ...       0.00

------------
INNER ENERGY
------------

The inner energy is: U= E(el) + E(ZPE) + E(vib) + E(rot) + E(trans)
    E(el)   - is the total energy from the electronic structure calculation
              = E(kin-el) + E(nuc-el) + E(el-el) + E(nuc-nuc)
    E(ZPE)  - the the zero temperature vibrational energy from the frequency calculation
    E(vib)  - the the finite temperature correction to E(ZPE) due to population
              of excited vibrational states
    E(rot)  - is the rotational thermal energy
    E(trans)- is the translational thermal energy

Summary of contributions to the inner energy U:
Electronic energy                ...   -652.72160588 Eh
Zero point energy                ...      0.30165068 Eh     189.29 kcal/mol
Thermal vibrational correction   ...      0.01427383 Eh       8.96 kcal/mol
Thermal rotational correction    ...      0.00141627 Eh       0.89 kcal/mol
Thermal translational correction ...      0.00141627 Eh       0.89 kcal/mol
-----------------------------------------------------------------------
Total thermal energy                   -652.40284883 Eh

Summary of corrections to the electronic energy:
(perhaps to be used in another calculation)
Total thermal correction                  0.01710637 Eh      10.73 kcal/mol
Non-thermal (ZPE) correction              0.30165068 Eh     189.29 kcal/mol
-----------------------------------------------------------------------
Total correction                          0.31875705 Eh     200.02 kcal/mol

--------
ENTHALPY
--------

The enthalpy is H = U + kB*T
                kB is Boltzmann's constant
Total free energy                 ...   -652.40284883 Eh
Thermal Enthalpy correction       ...      0.00094421 Eh       0.59 kcal/mol
-----------------------------------------------------------------------
Total Enthalpy                    ...   -652.40190462 Eh

Note: Only C1 symmetry has been detected, increase convergence thresholds
      if your molecule has a higher symmetry. Symmetry factor of 1.0 is
      used for the rotational entropy correction.

Rotational constants in cm-1:     0.025565     0.018706     0.013685

                             ****ORCA TERMINATED NORMALLY****
TOTAL RUN TIME: 0 days 0 hours 20 minutes 53 seconds 962 msec
