                         Program Version 5.0.4 -  RELEASE  -
|  1> ! OPT FREQ B3LYP 6-31+G(d) D4 AUTOAUX
|  2>
|  3> %PAL NPROCS 4 END
|  4>
|  5> %maxcore 3375
|  6>
|  7> *xyzfile 1 1 /users/fjb15167/WWenergy/structures/Nr.xyz
|  8>
|  9>                          ****END OF INPUT****
 Total Charge           Charge          ....    1
 Multiplicity           Mult            ....    1
 Number of Electrons    NEL             ....  132
Dispersion correction           -0.063133750
FINAL SINGLE POINT ENERGY      -817.923042809112
Dispersion correction            ... Starting D4
Dispersion correction           -0.062194567
FINAL SINGLE POINT ENERGY      -817.923828856203
Dispersion correction            ... Starting D4
Dispersion correction           -0.062355405
FINAL SINGLE POINT ENERGY      -817.924236007927
Dispersion correction            ... Starting D4
FINAL SINGLE POINT ENERGY      -817.924388438425
FINAL SINGLE POINT ENERGY      -817.924435462657
FINAL SINGLE POINT ENERGY      -817.924455857442
FINAL SINGLE POINT ENERGY      -817.924475973533
FINAL SINGLE POINT ENERGY      -817.924493263531
Dispersion correction           -0.062581199
FINAL SINGLE POINT ENERGY      -817.924499932926
Dispersion correction            ... Starting D4
Dispersion correction           -0.062589612
FINAL SINGLE POINT ENERGY      -817.924504674684
Dispersion correction            ... Starting D4
                    ***********************HURRAY********************

CARTESIAN COORDINATES (ANGSTROEM)
---------------------------------
  C      1.923946    2.084513    0.623169
  H      1.914019    1.739372    1.661435
  H      1.567523    3.114559    0.569638
  H      2.967680    2.062953    0.289566
  C      1.059133    1.248417   -0.294648
  N      1.127755   -0.124319   -0.195092
  C      1.876420   -0.822189    0.858234
  H      1.453361   -0.618926    1.846595
  H      1.766701   -1.896784    0.679358
  C      3.377181   -0.488325    1.002506
  N      4.170319   -0.525713   -0.104687
  O      3.792640   -0.196394    2.122481
  O      0.302192    1.775148   -1.119357
  C      3.752251   -1.001167   -1.417500
  H      3.425690   -0.180704   -2.070556
  H      4.601506   -1.502416   -1.892965
  H      2.947867   -1.733489   -1.337272
  C      5.566743   -0.104280    0.008779
  H      6.237962   -0.962506   -0.120588
  H      5.792030    0.639171   -0.765450
  H      5.727823    0.328004    0.995856
  C      0.296636   -0.915578   -1.105060
  H      0.270468   -0.408370   -2.073456
  C     -1.140054   -1.163656   -0.606189
  H     -1.609708   -1.885343   -1.290612
  H     -1.116822   -1.621697    0.391798
  C     -1.965125    0.121408   -0.571280
  H     -1.542748    0.820707    0.152947
  H     -1.948407    0.601617   -1.555768
  N     -3.360865   -0.153249   -0.175200
  H     -3.697525   -1.107240   -0.233497
  C     -4.244793    0.808353    0.092013
  N     -3.906585    2.095414   -0.070405
  N     -5.476665    0.499536    0.538481
  H     -3.033711    2.360063   -0.510273
  H     -4.490465    2.842221    0.281209
  H     -5.714206   -0.441767    0.820681
  H     -6.215828    1.188683    0.571657
  H      0.779664   -1.886027   -1.248551

 Multiplicity           Mult            ....    1
 Number of Electrons    NEL             ....  132
 Basis Dimension        Dim             ....  350

ORBITAL ENERGIES
----------------

  NO   OCC          E(Eh)            E(eV)
   0   2.0000     -19.219710      -522.9949
   1   2.0000     -19.199656      -522.4492
   2   2.0000     -14.542991      -395.7349
   3   2.0000     -14.542169      -395.7125
   4   2.0000     -14.541954      -395.7067
   5   2.0000     -14.474507      -393.8713
   6   2.0000     -14.455230      -393.3468
   7   2.0000     -10.509194      -285.9697
   8   2.0000     -10.391351      -282.7630
   9   2.0000     -10.374904      -282.3155
  10   2.0000     -10.366512      -282.0871
  11   2.0000     -10.336150      -281.2609
  12   2.0000     -10.328572      -281.0547
  13   2.0000     -10.323347      -280.9125
  14   2.0000     -10.306568      -280.4560
  15   2.0000     -10.284543      -279.8567
  16   2.0000     -10.270648      -279.4785
  17   2.0000      -1.197189       -32.5772
  18   2.0000      -1.142329       -31.0844
  19   2.0000      -1.123438       -30.5703
  20   2.0000      -1.088343       -29.6153
  21   2.0000      -1.078335       -29.3430
  22   2.0000      -1.044730       -28.4286
  23   2.0000      -1.022762       -27.8308
  24   2.0000      -0.929652       -25.2971
  25   2.0000      -0.862790       -23.4777
  26   2.0000      -0.843144       -22.9431
  27   2.0000      -0.825263       -22.4566
  28   2.0000      -0.811411       -22.0796
  29   2.0000      -0.807018       -21.9601
  30   2.0000      -0.776993       -21.1431
  31   2.0000      -0.774117       -21.0648
  32   2.0000      -0.748604       -20.3705
  33   2.0000      -0.728822       -19.8322
  34   2.0000      -0.680473       -18.5166
  35   2.0000      -0.677530       -18.4365
  36   2.0000      -0.668860       -18.2006
  37   2.0000      -0.638966       -17.3872
  38   2.0000      -0.631693       -17.1892
  39   2.0000      -0.628229       -17.0950
  40   2.0000      -0.602080       -16.3834
  41   2.0000      -0.597399       -16.2560
  42   2.0000      -0.582216       -15.8429
  43   2.0000      -0.579029       -15.7562
  44   2.0000      -0.561392       -15.2763
  45   2.0000      -0.553917       -15.0728
  46   2.0000      -0.547466       -14.8973
  47   2.0000      -0.544235       -14.8094
  48   2.0000      -0.523073       -14.2336
  49   2.0000      -0.511561       -13.9203
  50   2.0000      -0.509544       -13.8654
  51   2.0000      -0.501937       -13.6584
  52   2.0000      -0.494817       -13.4647
  53   2.0000      -0.490688       -13.3523
  54   2.0000      -0.487807       -13.2739
  55   2.0000      -0.483894       -13.1674
  56   2.0000      -0.475726       -12.9452
  57   2.0000      -0.464394       -12.6368
  58   2.0000      -0.459816       -12.5122
  59   2.0000      -0.454608       -12.3705
  60   2.0000      -0.448138       -12.1945
  61   2.0000      -0.434614       -11.8264
  62   2.0000      -0.364872        -9.9287
  63   2.0000      -0.357976        -9.7410
  64   2.0000      -0.337695        -9.1892
  65   2.0000      -0.330093        -8.9823
  66   0.0000      -0.155033        -4.2187
  67   0.0000      -0.151475        -4.1218
  68   0.0000      -0.121070        -3.2945
  69   0.0000      -0.110190        -2.9984
  70   0.0000      -0.097324        -2.6483

MULLIKEN ATOMIC CHARGES
-----------------------
   0 C :   -0.840858
   1 H :    0.261220
   2 H :    0.245081
   3 H :    0.265713
   4 C :    0.601543
   5 N :   -0.221609
   6 C :   -0.315556
   7 H :    0.259926
   8 H :    0.230973
   9 C :    0.116602
  10 N :   -0.080216
  11 O :   -0.448143
  12 O :   -0.508936
  13 C :   -0.422626
  14 H :    0.228228
  15 H :    0.228078
  16 H :    0.195576
  17 C :   -0.560145
  18 H :    0.225707
  19 H :    0.216094
  20 H :    0.260760
  21 C :   -0.179857
  22 H :    0.249752
  23 C :   -0.715114
  24 H :    0.219084
  25 H :    0.236769
  26 C :   -0.381985
  27 H :    0.246223
  28 H :    0.259136
  29 N :   -0.549986
  30 H :    0.426872
  31 C :    0.984677
  32 N :   -0.894974
  33 N :   -0.824520
  34 H :    0.458140
  35 H :    0.452536
  36 H :    0.430963
  37 H :    0.438099
  38 H :    0.206775
Sum of atomic charges:    1.0000000

LOEWDIN ATOMIC CHARGES
----------------------
   0 C :   -0.444415
   1 H :    0.233197
   2 H :    0.220935
   3 H :    0.238346
   4 C :    0.101693
   5 N :   -0.349348
   6 C :   -0.226820
   7 H :    0.243245
   8 H :    0.237662
   9 C :    0.079543
  10 N :   -0.341384
  11 O :   -0.382302
  12 O :   -0.430847
  13 C :   -0.342662
  14 H :    0.212882
  15 H :    0.211153
  16 H :    0.210306
  17 C :   -0.347866
  18 H :    0.206483
  19 H :    0.205078
  20 H :    0.241506
  21 C :   -0.246786
  22 H :    0.246349
  23 C :   -0.342196
  24 H :    0.209571
  25 H :    0.219040
  26 C :   -0.239496
  27 H :    0.239757
  28 H :    0.235109
  29 N :   -0.342962
  30 H :    0.351575
  31 C :    0.151091
  32 N :   -0.438593
  33 N :   -0.441156
  34 H :    0.360621
  35 H :    0.348999
  36 H :    0.348170
  37 H :    0.348077
  38 H :    0.216447

  Mayer bond orders larger than 0.100000
B(  0-C ,  1-H ) :   0.9371 B(  0-C ,  2-H ) :   0.9912 B(  0-C ,  3-H ) :   0.9150
B(  0-C ,  4-C ) :   0.5560 B(  0-C ,  5-N ) :  -0.1479 B(  4-C ,  5-N ) :   1.2103
B(  4-C , 12-O ) :   1.7669 B(  5-N ,  6-C ) :   0.8455 B(  5-N , 21-C ) :   0.7867
B(  6-C ,  7-H ) :   0.9424 B(  6-C ,  8-H ) :   0.9279 B(  6-C ,  9-C ) :   0.8692
B(  6-C , 10-N ) :  -0.2494 B(  6-C , 11-O ) :  -0.1751 B(  9-C , 10-N ) :   1.3015
B(  9-C , 11-O ) :   2.0345 B( 10-N , 13-C ) :   0.8331 B( 10-N , 17-C ) :   0.8257
B( 12-O , 21-C ) :  -0.1121 B( 13-C , 14-H ) :   0.9166 B( 13-C , 15-H ) :   0.9319
B( 13-C , 16-H ) :   0.9324 B( 17-C , 18-H ) :   0.9299 B( 17-C , 19-H ) :   0.9432
B( 17-C , 20-H ) :   0.9457 B( 21-C , 22-H ) :   0.9917 B( 21-C , 23-C ) :   0.6451
B( 21-C , 38-H ) :   0.9332 B( 23-C , 24-H ) :   0.9867 B( 23-C , 25-H ) :   1.0999
B( 23-C , 26-C ) :   0.6076 B( 23-C , 29-N ) :  -0.1294 B( 25-H , 26-C ) :  -0.1274
B( 26-C , 27-H ) :   0.9689 B( 26-C , 28-H ) :   0.9005 B( 26-C , 29-N ) :   1.0837
B( 26-C , 31-C ) :  -0.1207 B( 29-N , 30-H ) :   0.7432 B( 29-N , 31-C ) :   1.1474
B( 31-C , 32-N ) :   1.1716 B( 31-C , 33-N ) :   1.1806 B( 32-N , 34-H ) :   0.7399
B( 32-N , 35-H ) :   0.7578 B( 33-N , 36-H ) :   0.7689 B( 33-N , 37-H ) :   0.7627

Dispersion correction           -0.062590123
FINAL SINGLE POINT ENERGY      -817.924507619892

DIPOLE MOMENT
-------------
                                X             Y             Z
Electronic contribution:     -7.76610       2.45048       3.41099
Nuclear contribution   :      1.21755      -2.75757      -4.02792
                        -----------------------------------------
Total Dipole Moment    :     -6.54855      -0.30709      -0.61693
                        -----------------------------------------
Magnitude (a.u.)       :      6.58471
Magnitude (Debye)      :     16.73700

Dispersion correction in the Hessian             ... Starting D4

VIBRATIONAL FREQUENCIES
-----------------------

Scaling factor for frequencies =  1.000000000  (already applied!)

   0:         0.00 cm**-1
   1:         0.00 cm**-1
   2:         0.00 cm**-1
   3:         0.00 cm**-1
   4:         0.00 cm**-1
   5:         0.00 cm**-1
   6:        18.97 cm**-1
   7:        36.73 cm**-1
   8:        48.13 cm**-1
   9:        58.35 cm**-1
  10:        67.47 cm**-1
  11:        77.35 cm**-1
  12:        83.55 cm**-1
  13:        93.79 cm**-1
  14:       107.91 cm**-1
  15:       141.27 cm**-1
  16:       151.27 cm**-1
  17:       161.18 cm**-1
  18:       178.27 cm**-1
  19:       180.06 cm**-1
  20:       194.27 cm**-1
  21:       229.20 cm**-1
  22:       233.80 cm**-1
  23:       266.86 cm**-1
  24:       274.97 cm**-1
  25:       291.70 cm**-1
  26:       319.28 cm**-1
  27:       335.70 cm**-1
  28:       385.83 cm**-1
  29:       394.29 cm**-1
  30:       405.92 cm**-1
  31:       439.16 cm**-1
  32:       453.64 cm**-1
  33:       488.36 cm**-1
  34:       508.56 cm**-1
  35:       544.71 cm**-1
  36:       562.64 cm**-1
  37:       567.16 cm**-1
  38:       594.48 cm**-1
  39:       611.14 cm**-1
  40:       619.92 cm**-1
  41:       678.10 cm**-1
  42:       707.41 cm**-1
  43:       738.86 cm**-1
  44:       788.61 cm**-1
  45:       819.93 cm**-1
  46:       893.14 cm**-1
  47:       927.72 cm**-1
  48:       976.94 cm**-1
  49:       991.58 cm**-1
  50:      1001.72 cm**-1
  51:      1034.08 cm**-1
  52:      1063.28 cm**-1
  53:      1064.89 cm**-1
  54:      1074.90 cm**-1
  55:      1085.90 cm**-1
  56:      1086.67 cm**-1
  57:      1111.55 cm**-1
  58:      1132.09 cm**-1
  59:      1138.90 cm**-1
  60:      1155.17 cm**-1
  61:      1171.63 cm**-1
  62:      1186.32 cm**-1
  63:      1205.34 cm**-1
  64:      1260.20 cm**-1
  65:      1283.25 cm**-1
  66:      1292.42 cm**-1
  67:      1319.56 cm**-1
  68:      1350.64 cm**-1
  69:      1360.66 cm**-1
  70:      1376.59 cm**-1
  71:      1414.60 cm**-1
  72:      1417.20 cm**-1
  73:      1423.44 cm**-1
  74:      1441.89 cm**-1
  75:      1451.45 cm**-1
  76:      1456.59 cm**-1
  77:      1459.02 cm**-1
  78:      1488.37 cm**-1
  79:      1493.18 cm**-1
  80:      1495.21 cm**-1
  81:      1506.70 cm**-1
  82:      1511.36 cm**-1
  83:      1512.04 cm**-1
  84:      1517.36 cm**-1
  85:      1518.70 cm**-1
  86:      1526.81 cm**-1
  87:      1532.50 cm**-1
  88:      1550.39 cm**-1
  89:      1608.98 cm**-1
  90:      1665.60 cm**-1
  91:      1706.15 cm**-1
  92:      1711.89 cm**-1
  93:      1718.24 cm**-1
  94:      1738.38 cm**-1
  95:      3029.28 cm**-1
  96:      3037.28 cm**-1
  97:      3044.89 cm**-1
  98:      3068.73 cm**-1
  99:      3069.82 cm**-1
 100:      3073.59 cm**-1
 101:      3079.94 cm**-1
 102:      3088.66 cm**-1
 103:      3096.52 cm**-1
 104:      3106.61 cm**-1
 105:      3117.24 cm**-1
 106:      3132.77 cm**-1
 107:      3134.45 cm**-1
 108:      3145.70 cm**-1
 109:      3159.87 cm**-1
 110:      3170.19 cm**-1
 111:      3187.67 cm**-1
 112:      3583.47 cm**-1
 113:      3593.64 cm**-1
 114:      3603.15 cm**-1
 115:      3696.22 cm**-1
 116:      3704.71 cm**-1

IR SPECTRUM
-----------

 Mode   freq       eps      Int      T**2         TX        TY        TZ
       cm**-1   L/(mol*cm) km/mol    a.u.
----------------------------------------------------------------------------
  6:     18.97   0.000718    3.63  0.011812  ( 0.066735 -0.021303  0.083095)
  7:     36.73   0.000834    4.22  0.007089  (-0.027700 -0.079380 -0.004556)
  8:     48.13   0.000140    0.71  0.000905  (-0.019949  0.022327 -0.002871)
  9:     58.35   0.000133    0.67  0.000709  ( 0.009868 -0.021117  0.012860)
 10:     67.47   0.000713    3.60  0.003298  (-0.049254  0.029124  0.004910)
 11:     77.35   0.000094    0.47  0.000377  ( 0.019225 -0.000396 -0.002737)
 12:     83.55   0.000332    1.68  0.001239  ( 0.032918 -0.006752 -0.010464)
 13:     93.79   0.000277    1.40  0.000922  ( 0.021372  0.012806 -0.017353)
 14:    107.91   0.001138    5.75  0.003291  (-0.046465  0.005601  0.033179)
 15:    141.27   0.001037    5.24  0.002290  (-0.037848  0.022284  0.019008)
 16:    151.27   0.000256    1.30  0.000529  (-0.018897  0.009759  0.008737)
 17:    161.18   0.001119    5.65  0.002166  (-0.032836 -0.027596  0.018055)
 18:    178.27   0.000673    3.40  0.001178  (-0.004355 -0.025031 -0.023070)
 19:    180.06   0.000245    1.24  0.000425  (-0.000392 -0.012379 -0.016487)
 20:    194.27   0.000682    3.44  0.001095  (-0.030969 -0.010626 -0.004778)
 21:    229.20   0.020081  101.48  0.027341  ( 0.012789  0.065154  0.151436)
 22:    233.80   0.001108    5.60  0.001479  (-0.014291  0.035289 -0.005467)
 23:    266.86   0.000490    2.48  0.000573  ( 0.019043 -0.013940  0.004004)
 24:    274.97   0.000871    4.40  0.000989  (-0.020599 -0.007994  0.022370)
 25:    291.70   0.000519    2.62  0.000555  ( 0.016319  0.013670 -0.010082)
 26:    319.28   0.001215    6.14  0.001188  ( 0.032700 -0.001262 -0.010819)
 27:    335.70   0.002152   10.88  0.002001  (-0.001773  0.018186  0.040827)
 28:    385.83   0.062587  316.29  0.050621  ( 0.097742 -0.010654  0.202371)
 29:    394.29   0.001974    9.98  0.001562  ( 0.001810 -0.001476 -0.039458)
 30:    405.92   0.002017   10.19  0.001550  (-0.036570 -0.005928 -0.013339)
 31:    439.16   0.003927   19.85  0.002791  (-0.046195  0.007327 -0.024554)
 32:    453.64   0.000837    4.23  0.000576  ( 0.015819  0.017902  0.002311)
 33:    488.36   0.007291   36.85  0.004659  (-0.021168  0.026914 -0.059046)
 34:    508.56   0.016974   85.78  0.010416  ( 0.055674 -0.003281  0.085471)
 35:    544.71   0.003892   19.67  0.002230  ( 0.024505 -0.023743  0.032644)
 36:    562.64   0.001777    8.98  0.000985  (-0.006850  0.021195 -0.022119)
 37:    567.16   0.000901    4.55  0.000496  (-0.004153  0.013126 -0.017501)
 38:    594.48   0.002761   13.95  0.001450  ( 0.035235  0.001113 -0.014379)
 39:    611.14   0.001758    8.88  0.000898  (-0.011163  0.023858  0.014273)
 40:    619.92   0.000948    4.79  0.000477  ( 0.019075 -0.006748 -0.008225)
 41:    678.10   0.001772    8.96  0.000816  (-0.023330  0.007470  0.014684)
 42:    707.41   0.000201    1.01  0.000089  ( 0.006071 -0.000248 -0.007187)
 43:    738.86   0.001413    7.14  0.000597  ( 0.016713 -0.012686 -0.012517)
 44:    788.61   0.001536    7.76  0.000608  ( 0.006027 -0.015563 -0.018141)
 45:    819.93   0.000239    1.21  0.000091  ( 0.002345 -0.002940 -0.008766)
 46:    893.14   0.000949    4.79  0.000331  (-0.009847  0.012099 -0.009389)
 47:    927.72   0.000122    0.61  0.000041  (-0.004925 -0.003981  0.000891)
 48:    976.94   0.000187    0.94  0.000060  ( 0.001155 -0.005987 -0.004744)
 49:    991.58   0.001762    8.91  0.000555  (-0.014484  0.008322  0.016601)
 50:   1001.72   0.005382   27.20  0.001677  (-0.029851 -0.019589  0.020044)
 51:   1034.08   0.004613   23.31  0.001392  ( 0.031390 -0.018186  0.008729)
 52:   1063.28   0.002122   10.72  0.000623  (-0.024230 -0.002982  0.005179)
 53:   1064.89   0.001317    6.66  0.000386  ( 0.012197 -0.013756  0.006936)
 54:   1074.90   0.001545    7.81  0.000449  ( 0.002687  0.020971 -0.001233)
 55:   1085.90   0.002028   10.25  0.000583  ( 0.019396  0.005967  0.013078)
 56:   1086.67   0.000560    2.83  0.000161  ( 0.002000 -0.007484 -0.010038)
 57:   1111.55   0.000146    0.74  0.000041  ( 0.005067  0.001341 -0.003664)
 58:   1132.09   0.000345    1.75  0.000095  (-0.002585  0.000643 -0.009386)
 59:   1138.90   0.001317    6.66  0.000361  ( 0.014769 -0.005158  0.010780)
 60:   1155.17   0.005625   28.42  0.001519  ( 0.038036 -0.005774 -0.006278)
 61:   1171.63   0.000763    3.86  0.000203  ( 0.001104 -0.010234 -0.009861)
 62:   1186.32   0.009411   47.56  0.002476  (-0.032953  0.006941  0.036627)
 63:   1205.34   0.008312   42.00  0.002152  ( 0.043433  0.006947  0.014741)
 64:   1260.20   0.005252   26.54  0.001301  ( 0.003811  0.033445  0.012941)
 65:   1283.25   0.003856   19.48  0.000938  ( 0.025158 -0.017379  0.001628)
 66:   1292.42   0.008593   43.43  0.002075  (-0.039163 -0.023238  0.001083)
 67:   1319.56   0.004135   20.90  0.000978  ( 0.009943  0.029433 -0.003558)
 68:   1350.64   0.009735   49.19  0.002249  ( 0.001712 -0.043696  0.018356)
 69:   1360.66   0.001135    5.74  0.000260  ( 0.011856 -0.006694  0.008657)
 70:   1376.59   0.002725   13.77  0.000618  (-0.021755  0.003201 -0.011584)
 71:   1414.60   0.002539   12.83  0.000560  (-0.006590  0.022534 -0.003004)
 72:   1417.20   0.006875   34.74  0.001514  ( 0.032892  0.015899 -0.013387)
 73:   1423.44   0.001979   10.00  0.000434  ( 0.018041  0.008262  0.006330)
 74:   1441.89   0.017827   90.09  0.003858  ( 0.047537 -0.013331 -0.037692)
 75:   1451.45   0.020928  105.76  0.004499  (-0.005114 -0.066680  0.005204)
 76:   1456.59   0.002121   10.72  0.000454  ( 0.013985 -0.012631  0.009964)
 77:   1459.02   0.001519    7.67  0.000325  ( 0.001652 -0.017428 -0.004280)
 78:   1488.37   0.003168   16.01  0.000664  (-0.001223  0.025744 -0.000082)
 79:   1493.18   0.003369   17.03  0.000704  ( 0.015072 -0.013951 -0.016804)
 80:   1495.21   0.005439   27.49  0.001135  ( 0.029308  0.001126  0.016579)
 81:   1506.70   0.000015    0.08  0.000003  ( 0.001316  0.000683  0.000991)
 82:   1511.36   0.002801   14.15  0.000578  (-0.016314  0.004301  0.017136)
 83:   1512.04   0.004529   22.89  0.000935  (-0.006496  0.017960  0.023875)
 84:   1517.36   0.003145   15.89  0.000647  (-0.021109 -0.014169 -0.000641)
 85:   1518.70   0.002979   15.05  0.000612  (-0.009058  0.022996  0.001122)
 86:   1526.81   0.005440   27.49  0.001112  ( 0.015569 -0.028939  0.005664)
 87:   1532.50   0.005429   27.44  0.001106  ( 0.014001  0.029994  0.003134)
 88:   1550.39   0.011495   58.09  0.002314  ( 0.040716 -0.000456 -0.025606)
 89:   1608.98   0.002038   10.30  0.000395  ( 0.009101  0.017516 -0.002374)
 90:   1665.60   0.038831  196.24  0.007275  ( 0.063815 -0.054423 -0.015526)
 91:   1706.15   0.092563  467.77  0.016930  ( 0.104825 -0.060400  0.047893)
 92:   1711.89   0.091729  463.56  0.016721  ( 0.113981  0.031449 -0.052352)
 93:   1718.24   0.051595  260.74  0.009371  (-0.014497  0.095648 -0.003443)
 94:   1738.38   0.073102  369.43  0.013123  (-0.004177  0.022950  0.112155)
 95:   3029.28   0.004636   23.43  0.000478  (-0.012713 -0.017700 -0.001652)
 96:   3037.28   0.007141   36.09  0.000734  ( 0.017241 -0.000125  0.020892)
 97:   3044.89   0.009308   47.04  0.000954  ( 0.022880  0.002370 -0.020613)
 98:   3068.73   0.000751    3.79  0.000076  ( 0.007481  0.001038  0.004396)
 99:   3069.82   0.000148    0.75  0.000015  (-0.002113 -0.002550 -0.002021)
100:   3073.59   0.002156   10.90  0.000219  (-0.000223  0.004711 -0.014024)
101:   3079.94   0.002233   11.28  0.000226  (-0.000501  0.012414 -0.008479)
102:   3088.66   0.004658   23.54  0.000471  ( 0.003822 -0.015568 -0.014619)
103:   3096.52   0.006059   30.62  0.000611  (-0.008502  0.022400 -0.006044)
104:   3106.61   0.002930   14.81  0.000294  ( 0.009847 -0.012769 -0.005859)
105:   3117.24   0.001537    7.77  0.000154  (-0.002585  0.005713  0.010704)
106:   3132.77   0.000670    3.39  0.000067  ( 0.004823 -0.002271 -0.006191)
107:   3134.45   0.001831    9.26  0.000182  (-0.009017  0.008732 -0.004978)
108:   3145.70   0.001669    8.43  0.000166  ( 0.004279  0.002807  0.011804)
109:   3159.87   0.004511   22.80  0.000445  ( 0.016505  0.013027 -0.001826)
110:   3170.19   0.000854    4.31  0.000084  (-0.002174  0.008892 -0.000506)
111:   3187.67   0.000146    0.74  0.000014  ( 0.003062  0.002122  0.000670)
112:   3583.47   0.033555  169.57  0.002922  (-0.031445 -0.043115  0.008624)
113:   3593.64   0.024194  122.27  0.002101  ( 0.039294 -0.019225 -0.013688)
114:   3603.15   0.008291   41.90  0.000718  ( 0.016534  0.021026 -0.001599)
115:   3696.22   0.025274  127.72  0.002134  (-0.039301  0.015676  0.018535)
116:   3704.71   0.021076  106.51  0.001775  (-0.015482  0.038887 -0.004837)

--------------------------
THERMOCHEMISTRY AT 298.15K
--------------------------

Temperature         ... 298.15 K
Pressure            ... 1.00 atm
Total Mass          ... 244.32 AMU

Throughout the following assumptions are being made:
  (1) The electronic state is orbitally nondegenerate
  (2) There are no thermally accessible electronically excited states
  (3) Hindered rotations indicated by low frequency modes are not
      treated as such but are treated as vibrations and this may
      cause some error
  (4) All equations used are the standard statistical mechanics
      equations for an ideal gas
  (5) All vibrations are strictly harmonic

freq.      18.97  E(vib)   ...       0.57
freq.      36.73  E(vib)   ...       0.54
freq.      48.13  E(vib)   ...       0.53
freq.      58.35  E(vib)   ...       0.51
freq.      67.47  E(vib)   ...       0.50
freq.      77.35  E(vib)   ...       0.49
freq.      83.55  E(vib)   ...       0.48
freq.      93.79  E(vib)   ...       0.47
freq.     107.91  E(vib)   ...       0.45
freq.     141.27  E(vib)   ...       0.41
freq.     151.27  E(vib)   ...       0.40
freq.     161.18  E(vib)   ...       0.39
freq.     178.27  E(vib)   ...       0.37
freq.     180.06  E(vib)   ...       0.37
freq.     194.27  E(vib)   ...       0.36
freq.     229.20  E(vib)   ...       0.32
freq.     233.80  E(vib)   ...       0.32
freq.     266.86  E(vib)   ...       0.29
freq.     274.97  E(vib)   ...       0.28
freq.     291.70  E(vib)   ...       0.27
freq.     319.28  E(vib)   ...       0.25
freq.     335.70  E(vib)   ...       0.24
freq.     385.83  E(vib)   ...       0.20
freq.     394.29  E(vib)   ...       0.20
freq.     405.92  E(vib)   ...       0.19
freq.     439.16  E(vib)   ...       0.17
freq.     453.64  E(vib)   ...       0.16
freq.     488.36  E(vib)   ...       0.15
freq.     508.56  E(vib)   ...       0.14
freq.     544.71  E(vib)   ...       0.12
freq.     562.64  E(vib)   ...       0.11
freq.     567.16  E(vib)   ...       0.11
freq.     594.48  E(vib)   ...       0.10
freq.     611.14  E(vib)   ...       0.10
freq.     619.92  E(vib)   ...       0.09
freq.     678.10  E(vib)   ...       0.08
freq.     707.41  E(vib)   ...       0.07
freq.     738.86  E(vib)   ...       0.06
freq.     788.61  E(vib)   ...       0.05
freq.     819.93  E(vib)   ...       0.05
freq.     893.14  E(vib)   ...       0.03
freq.     927.72  E(vib)   ...       0.03
freq.     976.94  E(vib)   ...       0.03
freq.     991.58  E(vib)   ...       0.02
freq.    1001.72  E(vib)   ...       0.02
freq.    1034.08  E(vib)   ...       0.02
freq.    1063.28  E(vib)   ...       0.02
freq.    1064.89  E(vib)   ...       0.02
freq.    1074.90  E(vib)   ...       0.02
freq.    1085.90  E(vib)   ...       0.02
freq.    1086.67  E(vib)   ...       0.02
freq.    1111.55  E(vib)   ...       0.01
freq.    1132.09  E(vib)   ...       0.01
freq.    1138.90  E(vib)   ...       0.01
freq.    1155.17  E(vib)   ...       0.01
freq.    1171.63  E(vib)   ...       0.01
freq.    1186.32  E(vib)   ...       0.01
freq.    1205.34  E(vib)   ...       0.01
freq.    1260.20  E(vib)   ...       0.01
freq.    1283.25  E(vib)   ...       0.01
freq.    1292.42  E(vib)   ...       0.01
freq.    1319.56  E(vib)   ...       0.01
freq.    1350.64  E(vib)   ...       0.01
freq.    1360.66  E(vib)   ...       0.01
freq.    1376.59  E(vib)   ...       0.01
freq.    1414.60  E(vib)   ...       0.00
freq.    1417.20  E(vib)   ...       0.00
freq.    1423.44  E(vib)   ...       0.00
freq.    1441.89  E(vib)   ...       0.00
freq.    1451.45  E(vib)   ...       0.00
freq.    1456.59  E(vib)   ...       0.00
freq.    1459.02  E(vib)   ...       0.00
freq.    1488.37  E(vib)   ...       0.00
freq.    1493.18  E(vib)   ...       0.00
freq.    1495.21  E(vib)   ...       0.00
freq.    1506.70  E(vib)   ...       0.00
freq.    1511.36  E(vib)   ...       0.00
freq.    1512.04  E(vib)   ...       0.00
freq.    1517.36  E(vib)   ...       0.00
freq.    1518.70  E(vib)   ...       0.00
freq.    1526.81  E(vib)   ...       0.00
freq.    1532.50  E(vib)   ...       0.00
freq.    1550.39  E(vib)   ...       0.00
freq.    1608.98  E(vib)   ...       0.00
freq.    1665.60  E(vib)   ...       0.00
freq.    1706.15  E(vib)   ...       0.00
freq.    1711.89  E(vib)   ...       0.00
freq.    1718.24  E(vib)   ...       0.00
freq.    1738.38  E(vib)   ...       0.00
freq.    3029.28  E(vib)   ...       0.00
freq.    3037.28  E(vib)   ...       0.00
freq.    3044.89  E(vib)   ...       0.00
freq.    3068.73  E(vib)   ...       0.00
freq.    3069.82  E(vib)   ...       0.00
freq.    3073.59  E(vib)   ...       0.00
freq.    3079.94  E(vib)   ...       0.00
freq.    3088.66  E(vib)   ...       0.00
freq.    3096.52  E(vib)   ...       0.00
freq.    3106.61  E(vib)   ...       0.00
freq.    3117.24  E(vib)   ...       0.00
freq.    3132.77  E(vib)   ...       0.00
freq.    3134.45  E(vib)   ...       0.00
freq.    3145.70  E(vib)   ...       0.00
freq.    3159.87  E(vib)   ...       0.00
freq.    3170.19  E(vib)   ...       0.00
freq.    3187.67  E(vib)   ...       0.00
freq.    3583.47  E(vib)   ...       0.00
freq.    3593.64  E(vib)   ...       0.00
freq.    3603.15  E(vib)   ...       0.00
freq.    3696.22  E(vib)   ...       0.00
freq.    3704.71  E(vib)   ...       0.00

------------
INNER ENERGY
------------

The inner energy is: U= E(el) + E(ZPE) + E(vib) + E(rot) + E(trans)
    E(el)   - is the total energy from the electronic structure calculation
              = E(kin-el) + E(nuc-el) + E(el-el) + E(nuc-nuc)
    E(ZPE)  - the the zero temperature vibrational energy from the frequency calculation
    E(vib)  - the the finite temperature correction to E(ZPE) due to population
              of excited vibrational states
    E(rot)  - is the rotational thermal energy
    E(trans)- is the translational thermal energy

Summary of contributions to the inner energy U:
Electronic energy                ...   -817.92450762 Eh
Zero point energy                ...      0.34216807 Eh     214.71 kcal/mol
Thermal vibrational correction   ...      0.01820225 Eh      11.42 kcal/mol
Thermal rotational correction    ...      0.00141627 Eh       0.89 kcal/mol
Thermal translational correction ...      0.00141627 Eh       0.89 kcal/mol
-----------------------------------------------------------------------
Total thermal energy                   -817.56130475 Eh

Summary of corrections to the electronic energy:
(perhaps to be used in another calculation)
Total thermal correction                  0.02103480 Eh      13.20 kcal/mol
Non-thermal (ZPE) correction              0.34216807 Eh     214.71 kcal/mol
-----------------------------------------------------------------------
Total correction                          0.36320287 Eh     227.91 kcal/mol

--------

Rotational constants in cm-1:     0.036784     0.005966     0.005803

                             ****ORCA TERMINATED NORMALLY****
TOTAL RUN TIME: 0 days 1 hours 4 minutes 0 seconds 247 msec
