                         Program Version 5.0.4 -  RELEASE  -
|  1> ! OPT FREQ B3LYP 6-31G(d) D4 AUTOAUX CPCM(water)
|  2>
|  3> %PAL NPROCS 4 END
|  4>
|  5> %maxcore 3375
|  6>
|  7> *xyzfile 0 1 /users/fjb15167/WWenergy/structures/Nfp.xyz
|  8>
|  9>                          ****END OF INPUT****
 Total Charge           Charge          ....    0
 Multiplicity           Mult            ....    1
 Number of Electrons    NEL             ....  142
Dispersion correction           -0.077307205
FINAL SINGLE POINT ENERGY      -844.377545640194
Dispersion correction            ... Starting D4
Dispersion correction           -0.075598668
FINAL SINGLE POINT ENERGY      -844.377796785564
Dispersion correction            ... Starting D4
Dispersion correction           -0.076244509
FINAL SINGLE POINT ENERGY      -844.378380234304
Dispersion correction            ... Starting D4
FINAL SINGLE POINT ENERGY      -844.378455539702
FINAL SINGLE POINT ENERGY      -844.378511214062
FINAL SINGLE POINT ENERGY      -844.378533256231
FINAL SINGLE POINT ENERGY      -844.378548942085
FINAL SINGLE POINT ENERGY      -844.378557988445
FINAL SINGLE POINT ENERGY      -844.378562553473
FINAL SINGLE POINT ENERGY      -844.378566053448
FINAL SINGLE POINT ENERGY      -844.378566653462
FINAL SINGLE POINT ENERGY      -844.378566146702
Dispersion correction           -0.076218838
FINAL SINGLE POINT ENERGY      -844.378564264407
Dispersion correction            ... Starting D4
Dispersion correction           -0.076200913
FINAL SINGLE POINT ENERGY      -844.378561374732
Dispersion correction            ... Starting D4
                    ***********************HURRAY********************

CARTESIAN COORDINATES (ANGSTROEM)
---------------------------------
  C      2.703940   -2.701457   -0.944177
  H      1.657846   -2.741628   -1.262674
  H      2.829825   -3.415459   -0.121805
  H      3.344082   -3.003119   -1.774723
  C      3.118913   -1.305285   -0.516895
  O      4.103551   -0.752997   -1.027236
  N      2.371035   -0.695210    0.450509
  C      2.782567    0.613035    0.958546
  H      3.026484    0.528037    2.022185
  H      3.677584    0.913938    0.414611
  C      1.181011   -1.293233    1.069744
  H      1.317314   -2.374034    1.159610
  H      1.120897   -0.895457    2.088518
  C     -0.117759   -0.971319    0.319565
  H     -0.164541    0.102681    0.120125
  H     -0.123495   -1.469771   -0.657578
  C      1.665593    1.662718    0.876739
  N      1.337106    2.166680   -0.342227
  O      1.089304    2.009163    1.917174
  C      1.869174    1.692608   -1.615137
  H      1.142548    1.039314   -2.117421
  H      2.061037    2.555088   -2.262500
  H      2.799055    1.142190   -1.484855
  C      0.185528    3.057632   -0.445127
  H     -0.710498    2.500081   -0.752720
  H      0.000509    3.519313    0.523652
  H      0.391845    3.830269   -1.192379
  C     -1.369616   -1.375592    1.117031
  H     -1.400680   -2.465494    1.238225
  H     -1.299738   -0.940994    2.123610
  C     -2.628406   -0.886486    0.438465
  C     -2.979651    0.470648    0.507908
  C     -3.435747   -1.749118   -0.312793
  C     -4.107475    0.952986   -0.157464
  H     -2.359437    1.150970    1.088400
  C     -4.567600   -1.271158   -0.979670
  H     -3.175416   -2.803710   -0.374883
  C     -4.906453    0.081790   -0.905227
  H     -4.365640    2.007014   -0.090336
  H     -5.184039   -1.956569   -1.556163
  H     -5.786558    0.454934   -1.422627

 Multiplicity           Mult            ....    1
 Number of Electrons    NEL             ....  142
 Basis Dimension        Dim             ....  310

ORBITAL ENERGIES
----------------

  NO   OCC          E(Eh)            E(eV)
   0   2.0000     -19.108809      -519.9771
   1   2.0000     -19.108053      -519.9566
   2   2.0000     -14.360375      -390.7657
   3   2.0000     -14.359344      -390.7376
   4   2.0000     -10.282991      -279.8144
   5   2.0000     -10.279827      -279.7283
   6   2.0000     -10.211093      -277.8580
   7   2.0000     -10.209102      -277.8038
   8   2.0000     -10.198710      -277.5210
   9   2.0000     -10.195770      -277.4410
  10   2.0000     -10.184097      -277.1234
  11   2.0000     -10.176951      -276.9289
  12   2.0000     -10.176660      -276.9210
  13   2.0000     -10.175182      -276.8808
  14   2.0000     -10.174241      -276.8552
  15   2.0000     -10.174093      -276.8511
  16   2.0000     -10.173359      -276.8312
  17   2.0000     -10.172413      -276.8054
  18   2.0000     -10.172227      -276.8004
  19   2.0000      -1.032038       -28.0832
  20   2.0000      -1.025421       -27.9031
  21   2.0000      -0.933626       -25.4053
  22   2.0000      -0.926224       -25.2038
  23   2.0000      -0.848396       -23.0860
  24   2.0000      -0.791038       -21.5252
  25   2.0000      -0.758723       -20.6459
  26   2.0000      -0.740263       -20.1436
  27   2.0000      -0.735341       -20.0096
  28   2.0000      -0.717491       -19.5239
  29   2.0000      -0.705868       -19.2076
  30   2.0000      -0.679515       -18.4905
  31   2.0000      -0.667720       -18.1696
  32   2.0000      -0.610774       -16.6200
  33   2.0000      -0.595975       -16.2173
  34   2.0000      -0.568930       -15.4814
  35   2.0000      -0.550935       -14.9917
  36   2.0000      -0.536241       -14.5919
  37   2.0000      -0.511567       -13.9204
  38   2.0000      -0.500032       -13.6066
  39   2.0000      -0.485164       -13.2020
  40   2.0000      -0.477558       -12.9950
  41   2.0000      -0.464354       -12.6357
  42   2.0000      -0.459152       -12.4942
  43   2.0000      -0.455133       -12.3848
  44   2.0000      -0.447958       -12.1896
  45   2.0000      -0.444254       -12.0888
  46   2.0000      -0.428809       -11.6685
  47   2.0000      -0.416076       -11.3220
  48   2.0000      -0.409903       -11.1540
  49   2.0000      -0.406526       -11.0621
  50   2.0000      -0.401774       -10.9328
  51   2.0000      -0.399718       -10.8769
  52   2.0000      -0.395758       -10.7691
  53   2.0000      -0.393456       -10.7065
  54   2.0000      -0.389206       -10.5908
  55   2.0000      -0.378646       -10.3035
  56   2.0000      -0.374274       -10.1845
  57   2.0000      -0.372035       -10.1236
  58   2.0000      -0.363565        -9.8931
  59   2.0000      -0.360049        -9.7974
  60   2.0000      -0.346825        -9.4376
  61   2.0000      -0.341079        -9.2812
  62   2.0000      -0.335704        -9.1350
  63   2.0000      -0.325974        -8.8702
  64   2.0000      -0.322733        -8.7820
  65   2.0000      -0.259014        -7.0481
  66   2.0000      -0.251834        -6.8528
  67   2.0000      -0.244900        -6.6641
  68   2.0000      -0.241634        -6.5752
  69   2.0000      -0.236835        -6.4446
  70   2.0000      -0.229854        -6.2546
  71   0.0000       0.002732         0.0743
  72   0.0000       0.006078         0.1654
  73   0.0000       0.016114         0.4385
  74   0.0000       0.029615         0.8059
  75   0.0000       0.087233         2.3737

MULLIKEN ATOMIC CHARGES
-----------------------
   0 C :   -0.563403
   1 H :    0.194899
   2 H :    0.198071
   3 H :    0.180546
   4 C :    0.529329
   5 O :   -0.540330
   6 N :   -0.369896
   7 C :   -0.247979
   8 H :    0.180991
   9 H :    0.204544
  10 C :   -0.168121
  11 H :    0.181115
  12 H :    0.173466
  13 C :   -0.282128
  14 H :    0.169931
  15 H :    0.157540
  16 C :    0.516057
  17 N :   -0.358532
  18 O :   -0.545746
  19 C :   -0.346602
  20 H :    0.171985
  21 H :    0.175102
  22 H :    0.193911
  23 C :   -0.331910
  24 H :    0.172583
  25 H :    0.183681
  26 H :    0.173305
  27 C :   -0.350987
  28 H :    0.156018
  29 H :    0.156637
  30 C :    0.153612
  31 C :   -0.193328
  32 C :   -0.201902
  33 C :   -0.153844
  34 H :    0.146738
  35 C :   -0.150505
  36 H :    0.144112
  37 C :   -0.153339
  38 H :    0.148663
  39 H :    0.148274
  40 H :    0.147445
Sum of atomic charges:   -0.0000000

LOEWDIN ATOMIC CHARGES
----------------------
   0 C :   -0.392947
   1 H :    0.153877
   2 H :    0.158128
   3 H :    0.149873
   4 C :    0.114717
   5 O :   -0.342427
   6 N :   -0.067101
   7 C :   -0.178480
   8 H :    0.145310
   9 H :    0.159642
  10 C :   -0.159063
  11 H :    0.142835
  12 H :    0.139725
  13 C :   -0.239705
  14 H :    0.134050
  15 H :    0.128761
  16 C :    0.093852
  17 N :   -0.069644
  18 O :   -0.341249
  19 C :   -0.285542
  20 H :    0.132470
  21 H :    0.137906
  22 H :    0.148485
  23 C :   -0.280181
  24 H :    0.131930
  25 H :    0.146146
  26 H :    0.138296
  27 C :   -0.225538
  28 H :    0.132220
  29 H :    0.133638
  30 C :   -0.019473
  31 C :   -0.143696
  32 C :   -0.145506
  33 C :   -0.138598
  34 H :    0.137743
  35 C :   -0.138371
  36 H :    0.137400
  37 C :   -0.146332
  38 H :    0.139145
  39 H :    0.139024
  40 H :    0.138681

  Mayer bond orders larger than 0.100000
B(  0-C ,  1-H ) :   0.9185 B(  0-C ,  2-H ) :   0.9205 B(  0-C ,  3-H ) :   0.9387
B(  0-C ,  4-C ) :   0.9948 B(  4-C ,  5-O ) :   1.7395 B(  4-C ,  6-N ) :   1.1702
B(  6-N ,  7-C ) :   0.9537 B(  6-N , 10-C ) :   0.9257 B(  7-C ,  8-H ) :   0.9157
B(  7-C ,  9-H ) :   0.8932 B(  7-C , 16-C ) :   0.9389 B( 10-C , 11-H ) :   0.9218
B( 10-C , 12-H ) :   0.9226 B( 10-C , 13-C ) :   0.9834 B( 13-C , 14-H ) :   0.9205
B( 13-C , 15-H ) :   0.9295 B( 13-C , 27-C ) :   0.9865 B( 16-C , 17-N ) :   1.1972
B( 16-C , 18-O ) :   1.7483 B( 17-N , 19-C ) :   0.9497 B( 17-N , 23-C ) :   0.9465
B( 19-C , 20-H ) :   0.9299 B( 19-C , 21-H ) :   0.9343 B( 19-C , 22-H ) :   0.9031
B( 23-C , 24-H ) :   0.9289 B( 23-C , 25-H ) :   0.9282 B( 23-C , 26-H ) :   0.9366
B( 27-C , 28-H ) :   0.9319 B( 27-C , 29-H ) :   0.9273 B( 27-C , 30-C ) :   0.9866
B( 30-C , 31-C ) :   1.4210 B( 30-C , 32-C ) :   1.4458 B( 31-C , 33-C ) :   1.4434
B( 31-C , 34-H ) :   0.9185 B( 32-C , 35-C ) :   1.4287 B( 32-C , 36-H ) :   0.9220
B( 33-C , 37-C ) :   1.4406 B( 33-C , 38-H ) :   0.9267 B( 35-C , 37-C ) :   1.4553
B( 35-C , 39-H ) :   0.9266 B( 37-C , 40-H ) :   0.9275

Dispersion correction           -0.076190575
FINAL SINGLE POINT ENERGY      -844.378559555372

DIPOLE MOMENT
-------------
                                X             Y             Z
Electronic contribution:      0.49283       1.42632       3.55971
Nuclear contribution   :     -1.53572      -2.31510      -4.35636
                        -----------------------------------------
Total Dipole Moment    :     -1.04289      -0.88878      -0.79665
                        -----------------------------------------
Magnitude (a.u.)       :      1.58499
Magnitude (Debye)      :      4.02873

Dispersion correction in the Hessian             ... Starting D4

VIBRATIONAL FREQUENCIES
-----------------------

Scaling factor for frequencies =  1.000000000  (already applied!)

   0:         0.00 cm**-1
   1:         0.00 cm**-1
   2:         0.00 cm**-1
   3:         0.00 cm**-1
   4:         0.00 cm**-1
   5:         0.00 cm**-1
   6:        11.43 cm**-1
   7:        26.66 cm**-1
   8:        31.82 cm**-1
   9:        49.60 cm**-1
  10:        62.91 cm**-1
  11:        74.86 cm**-1
  12:        83.48 cm**-1
  13:        99.22 cm**-1
  14:       113.87 cm**-1
  15:       137.42 cm**-1
  16:       150.67 cm**-1
  17:       166.23 cm**-1
  18:       170.88 cm**-1
  19:       212.24 cm**-1
  20:       217.07 cm**-1
  21:       266.08 cm**-1
  22:       275.47 cm**-1
  23:       291.53 cm**-1
  24:       341.28 cm**-1
  25:       352.03 cm**-1
  26:       386.52 cm**-1
  27:       416.99 cm**-1
  28:       420.15 cm**-1
  29:       431.91 cm**-1
  30:       460.23 cm**-1
  31:       493.14 cm**-1
  32:       519.69 cm**-1
  33:       579.56 cm**-1
  34:       586.90 cm**-1
  35:       601.91 cm**-1
  36:       633.68 cm**-1
  37:       636.15 cm**-1
  38:       701.42 cm**-1
  39:       716.05 cm**-1
  40:       744.61 cm**-1
  41:       763.36 cm**-1
  42:       770.08 cm**-1
  43:       810.85 cm**-1
  44:       841.20 cm**-1
  45:       863.71 cm**-1
  46:       871.64 cm**-1
  47:       927.17 cm**-1
  48:       957.96 cm**-1
  49:       975.76 cm**-1
  50:      1000.03 cm**-1
  51:      1002.21 cm**-1
  52:      1011.94 cm**-1
  53:      1014.98 cm**-1
  54:      1046.64 cm**-1
  55:      1053.64 cm**-1
  56:      1055.66 cm**-1
  57:      1060.65 cm**-1
  58:      1062.30 cm**-1
  59:      1087.39 cm**-1
  60:      1090.39 cm**-1
  61:      1126.88 cm**-1
  62:      1135.14 cm**-1
  63:      1165.79 cm**-1
  64:      1181.49 cm**-1
  65:      1183.93 cm**-1
  66:      1204.32 cm**-1
  67:      1212.36 cm**-1
  68:      1234.53 cm**-1
  69:      1243.61 cm**-1
  70:      1283.30 cm**-1
  71:      1288.56 cm**-1
  72:      1297.89 cm**-1
  73:      1315.93 cm**-1
  74:      1350.59 cm**-1
  75:      1359.82 cm**-1
  76:      1367.56 cm**-1
  77:      1370.06 cm**-1
  78:      1388.84 cm**-1
  79:      1410.81 cm**-1
  80:      1422.47 cm**-1
  81:      1442.53 cm**-1
  82:      1457.85 cm**-1
  83:      1476.00 cm**-1
  84:      1484.45 cm**-1
  85:      1489.43 cm**-1
  86:      1497.24 cm**-1
  87:      1499.31 cm**-1
  88:      1502.77 cm**-1
  89:      1504.25 cm**-1
  90:      1511.09 cm**-1
  91:      1516.35 cm**-1
  92:      1520.77 cm**-1
  93:      1528.91 cm**-1
  94:      1536.52 cm**-1
  95:      1542.69 cm**-1
  96:      1553.38 cm**-1
  97:      1639.28 cm**-1
  98:      1660.38 cm**-1
  99:      1700.45 cm**-1
 100:      1708.46 cm**-1
 101:      3033.51 cm**-1
 102:      3035.84 cm**-1
 103:      3038.25 cm**-1
 104:      3061.48 cm**-1
 105:      3066.40 cm**-1
 106:      3077.48 cm**-1
 107:      3080.95 cm**-1
 108:      3084.64 cm**-1
 109:      3099.80 cm**-1
 110:      3109.77 cm**-1
 111:      3119.57 cm**-1
 112:      3132.66 cm**-1
 113:      3137.36 cm**-1
 114:      3166.71 cm**-1
 115:      3171.01 cm**-1
 116:      3176.12 cm**-1
 117:      3178.67 cm**-1
 118:      3189.31 cm**-1
 119:      3189.33 cm**-1
 120:      3194.48 cm**-1
 121:      3196.94 cm**-1
 122:      3208.83 cm**-1

IR SPECTRUM
-----------

 Mode   freq       eps      Int      T**2         TX        TY        TZ
       cm**-1   L/(mol*cm) km/mol    a.u.
----------------------------------------------------------------------------
  6:     11.43   0.000223    1.13  0.006082  (-0.075550  0.014436  0.012886)
  7:     26.66   0.000264    1.33  0.003086  ( 0.035814  0.042269 -0.004059)
  8:     31.82   0.000133    0.67  0.001303  ( 0.025844  0.001319 -0.025166)
  9:     49.60   0.000986    4.98  0.006205  (-0.061879 -0.047061 -0.012716)
 10:     62.91   0.000781    3.94  0.003872  (-0.039606 -0.028907 -0.038309)
 11:     74.86   0.000392    1.98  0.001632  (-0.011225  0.038611  0.003926)
 12:     83.48   0.000251    1.27  0.000939  (-0.002578 -0.027851 -0.012514)
 13:     99.22   0.000476    2.41  0.001498  (-0.001180 -0.036920 -0.011563)
 14:    113.87   0.003035   15.34  0.008318  (-0.044880  0.062467 -0.049002)
 15:    137.42   0.000922    4.66  0.002094  (-0.003244  0.045482  0.003817)
 16:    150.67   0.000207    1.05  0.000429  (-0.017060  0.002151 -0.011526)
 17:    166.23   0.000202    1.02  0.000379  (-0.007953  0.016128  0.007427)
 18:    170.88   0.000116    0.58  0.000211  (-0.002701 -0.010348 -0.009837)
 19:    212.24   0.000043    0.22  0.000063  (-0.004424 -0.005013 -0.004235)
 20:    217.07   0.000511    2.58  0.000735  ( 0.020353  0.017689 -0.002736)
 21:    266.08   0.002540   12.83  0.002979  ( 0.022032  0.049882 -0.002230)
 22:    275.47   0.001290    6.52  0.001461  (-0.003690 -0.031718  0.021015)
 23:    291.53   0.000384    1.94  0.000412  (-0.014241  0.012653  0.006975)
 24:    341.28   0.000218    1.10  0.000199  ( 0.002438 -0.011511 -0.007803)
 25:    352.03   0.002874   14.52  0.002548  ( 0.011910 -0.013406  0.047183)
 26:    386.52   0.001773    8.96  0.001432  ( 0.026032 -0.014162  0.023523)
 27:    416.99   0.000041    0.21  0.000031  (-0.001736  0.005040 -0.001531)
 28:    420.15   0.001995   10.08  0.001482  (-0.026890  0.025934 -0.009273)
 29:    431.91   0.000089    0.45  0.000064  (-0.002977  0.007405 -0.000703)
 30:    460.23   0.002801   14.15  0.001899  (-0.039862 -0.002512  0.017430)
 31:    493.14   0.004814   24.33  0.003046  (-0.024109 -0.046157 -0.018289)
 32:    519.69   0.003471   17.54  0.002084  ( 0.036627 -0.004004 -0.026960)
 33:    579.56   0.003412   17.24  0.001837  (-0.025472  0.032058 -0.012669)
 34:    586.90   0.000546    2.76  0.000291  (-0.015596 -0.000345  0.006872)
 35:    601.91   0.002358   11.91  0.001222  ( 0.032485 -0.012921 -0.000202)
 36:    633.68   0.000905    4.58  0.000446  (-0.003650  0.004530 -0.020299)
 37:    636.15   0.004075   20.59  0.001999  (-0.010468 -0.001551 -0.043441)
 38:    701.42   0.000980    4.95  0.000436  (-0.011336 -0.010589  0.013974)
 39:    716.05   0.008039   40.63  0.003504  ( 0.034283  0.009692 -0.047268)
 40:    744.61   0.002203   11.13  0.000923  (-0.001771  0.030324 -0.000736)
 41:    763.36   0.002172   10.97  0.000888  (-0.001593 -0.017070  0.024369)
 42:    770.08   0.006060   30.63  0.002456  (-0.031615 -0.000823  0.038153)
 43:    810.85   0.006063   30.64  0.002333  ( 0.004917  0.025818 -0.040529)
 44:    841.20   0.001288    6.51  0.000478  ( 0.004270  0.016868 -0.013227)
 45:    863.71   0.000224    1.13  0.000081  (-0.001778 -0.006597 -0.005848)
 46:    871.64   0.001322    6.68  0.000473  ( 0.006781 -0.011031 -0.017485)
 47:    927.17   0.000912    4.61  0.000307  (-0.007863 -0.005969  0.014473)
 48:    957.96   0.000480    2.43  0.000156  ( 0.006267  0.006495 -0.008662)
 49:    975.76   0.000033    0.17  0.000011  ( 0.002620  0.000274 -0.001938)
 50:   1000.03   0.000216    1.09  0.000068  (-0.002420 -0.002694  0.007378)
 51:   1002.21   0.004947   25.00  0.001540  ( 0.009763 -0.013339  0.035599)
 52:   1011.94   0.007519   38.00  0.002319  ( 0.045671 -0.014643 -0.004302)
 53:   1014.98   0.000043    0.22  0.000013  ( 0.003127 -0.001522  0.001109)
 54:   1046.64   0.000307    1.55  0.000092  ( 0.008451 -0.004348  0.001103)
 55:   1053.64   0.004156   21.00  0.001231  ( 0.003733  0.004205  0.034630)
 56:   1055.66   0.002069   10.45  0.000611  ( 0.020423 -0.008453  0.011087)
 57:   1060.65   0.003962   20.02  0.001166  ( 0.026902 -0.020839  0.002767)
 58:   1062.30   0.001907    9.64  0.000560  ( 0.009506 -0.008212  0.020063)
 59:   1087.39   0.004809   24.30  0.001380  (-0.018935  0.018640  0.025962)
 60:   1090.39   0.002690   13.60  0.000770  ( 0.011782  0.005371  0.024541)
 61:   1126.88   0.003055   15.44  0.000846  (-0.003770 -0.027716  0.007978)
 62:   1135.14   0.000670    3.39  0.000184  ( 0.006331 -0.011655 -0.002895)
 63:   1165.79   0.010510   53.11  0.002813  ( 0.001033 -0.025838  0.046311)
 64:   1181.49   0.000035    0.18  0.000009  (-0.000315 -0.002932  0.000676)
 65:   1183.93   0.001842    9.31  0.000486  ( 0.000015 -0.010458  0.019394)
 66:   1204.32   0.000225    1.14  0.000058  (-0.002019  0.000290 -0.007351)
 67:   1212.36   0.009532   48.17  0.002454  ( 0.004630  0.012439  0.047723)
 68:   1234.53   0.000141    0.71  0.000036  ( 0.005817 -0.001167  0.000683)
 69:   1243.61   0.008477   42.84  0.002127  ( 0.039532 -0.018302 -0.015143)
 70:   1283.30   0.023104  116.76  0.005618  (-0.008047  0.050635  0.054678)
 71:   1288.56   0.024249  122.55  0.005873  ( 0.049061 -0.057570 -0.012302)
 72:   1297.89   0.000483    2.44  0.000116  ( 0.006934 -0.003663  0.007393)
 73:   1315.93   0.001136    5.74  0.000269  ( 0.014682  0.006069 -0.004114)
 74:   1350.59   0.002750   13.90  0.000635  ( 0.012980 -0.016821 -0.013562)
 75:   1359.82   0.000156    0.79  0.000036  (-0.004118 -0.003870  0.001978)
 76:   1367.56   0.000061    0.31  0.000014  (-0.003173  0.000623 -0.001836)
 77:   1370.06   0.000271    1.37  0.000062  ( 0.001406  0.005736 -0.005187)
 78:   1388.84   0.002235   11.30  0.000502  (-0.018171 -0.003379  0.012675)
 79:   1410.81   0.005366   27.12  0.001187  ( 0.029947  0.016937  0.001822)
 80:   1422.47   0.008192   41.40  0.001797  ( 0.035204 -0.010006 -0.021396)
 81:   1442.53   0.019124   96.64  0.004137  (-0.024096  0.031077 -0.050898)
 82:   1457.85   0.013022   65.81  0.002787  (-0.024715  0.040213 -0.023653)
 83:   1476.00   0.048158  243.37  0.010182  (-0.064905  0.049100  0.059652)
 84:   1484.45   0.003828   19.35  0.000805  ( 0.014558  0.023626 -0.005887)
 85:   1489.43   0.000813    4.11  0.000170  (-0.007323 -0.005707 -0.009169)
 86:   1497.24   0.002597   13.12  0.000541  (-0.001439  0.019974  0.011842)
 87:   1499.31   0.001281    6.47  0.000267  (-0.003198  0.000396  0.016009)
 88:   1502.77   0.005029   25.42  0.001044  ( 0.005030  0.025352  0.019400)
 89:   1504.25   0.001552    7.84  0.000322  ( 0.014509 -0.010187  0.002755)
 90:   1511.09   0.001003    5.07  0.000207  ( 0.006437 -0.009805 -0.008340)
 91:   1516.35   0.003400   17.18  0.000700  (-0.010636 -0.022950  0.007741)
 92:   1520.77   0.002241   11.32  0.000460  (-0.008149  0.016165  0.011493)
 93:   1528.91   0.006251   31.59  0.001276  ( 0.027472  0.020500 -0.010048)
 94:   1536.52   0.005818   29.40  0.001182  (-0.000033  0.012645  0.031965)
 95:   1542.69   0.005369   27.13  0.001086  ( 0.026882 -0.008878  0.016870)
 96:   1553.38   0.017218   87.01  0.003459  ( 0.036941 -0.032244  0.032476)
 97:   1639.28   0.000271    1.37  0.000052  (-0.001248 -0.005848 -0.003989)
 98:   1660.38   0.002662   13.45  0.000500  (-0.021413  0.003618 -0.005352)
 99:   1700.45   0.170644  862.36  0.031316  (-0.121974 -0.023848  0.125976)
100:   1708.46   0.069379  350.62  0.012673  ( 0.014184  0.019005  0.110047)
101:   3033.51   0.005292   26.75  0.000544  ( 0.019581 -0.009158 -0.008784)
102:   3035.84   0.008770   44.32  0.000901  (-0.007140  0.010086 -0.027363)
103:   3038.25   0.016941   85.62  0.001740  (-0.022374 -0.001254 -0.035184)
104:   3061.48   0.003975   20.09  0.000405  (-0.002770 -0.001912  0.019847)
105:   3066.40   0.000926    4.68  0.000094  ( 0.001572  0.006838  0.006705)
106:   3077.48   0.009084   45.91  0.000921  (-0.004529 -0.020453  0.021961)
107:   3080.95   0.007155   36.16  0.000725  ( 0.001049 -0.017158 -0.020717)
108:   3084.64   0.011429   57.76  0.001156  ( 0.007167  0.007299  0.032429)
109:   3099.80   0.010572   53.42  0.001064  (-0.013787 -0.027141  0.011728)
110:   3109.77   0.006275   31.71  0.000630  (-0.008197 -0.021857  0.009209)
111:   3119.57   0.000568    2.87  0.000057  ( 0.000083 -0.007396  0.001441)
112:   3132.66   0.002129   10.76  0.000212  (-0.008442  0.006138 -0.010157)
113:   3137.36   0.013813   69.80  0.001374  (-0.004614  0.035798  0.008435)
114:   3166.71   0.001570    7.94  0.000155  (-0.005789  0.010689 -0.002642)
115:   3171.01   0.002885   14.58  0.000284  ( 0.012664 -0.002343 -0.010866)
116:   3176.12   0.002515   12.71  0.000247  ( 0.012675  0.001225  0.009214)
117:   3178.67   0.001789    9.04  0.000176  (-0.003889  0.012669 -0.000161)
118:   3189.31   0.001841    9.30  0.000180  (-0.006827  0.000482 -0.011543)
119:   3189.33   0.001852    9.36  0.000181  ( 0.010218 -0.008589 -0.001732)
120:   3194.48   0.000450    2.28  0.000044  (-0.002129 -0.006262  0.000507)
121:   3196.94   0.012535   63.35  0.001224  (-0.005578 -0.032701 -0.011096)
122:   3208.83   0.005548   28.04  0.000540  (-0.019707  0.006472 -0.010454)

--------------------------
THERMOCHEMISTRY AT 298.15K
--------------------------

Temperature         ... 298.15 K
Pressure            ... 1.00 atm
Total Mass          ... 262.35 AMU

Throughout the following assumptions are being made:
  (1) The electronic state is orbitally nondegenerate
  (2) There are no thermally accessible electronically excited states
  (3) Hindered rotations indicated by low frequency modes are not
      treated as such but are treated as vibrations and this may
      cause some error
  (4) All equations used are the standard statistical mechanics
      equations for an ideal gas
  (5) All vibrations are strictly harmonic

freq.      11.43  E(vib)   ...       0.58
freq.      26.66  E(vib)   ...       0.56
freq.      31.82  E(vib)   ...       0.55
freq.      49.60  E(vib)   ...       0.52
freq.      62.91  E(vib)   ...       0.51
freq.      74.86  E(vib)   ...       0.49
freq.      83.48  E(vib)   ...       0.48
freq.      99.22  E(vib)   ...       0.46
freq.     113.87  E(vib)   ...       0.44
freq.     137.42  E(vib)   ...       0.42
freq.     150.67  E(vib)   ...       0.40
freq.     166.23  E(vib)   ...       0.39
freq.     170.88  E(vib)   ...       0.38
freq.     212.24  E(vib)   ...       0.34
freq.     217.07  E(vib)   ...       0.34
freq.     266.08  E(vib)   ...       0.29
freq.     275.47  E(vib)   ...       0.28
freq.     291.53  E(vib)   ...       0.27
freq.     341.28  E(vib)   ...       0.23
freq.     352.03  E(vib)   ...       0.23
freq.     386.52  E(vib)   ...       0.20
freq.     416.99  E(vib)   ...       0.18
freq.     420.15  E(vib)   ...       0.18
freq.     431.91  E(vib)   ...       0.18
freq.     460.23  E(vib)   ...       0.16
freq.     493.14  E(vib)   ...       0.14
freq.     519.69  E(vib)   ...       0.13
freq.     579.56  E(vib)   ...       0.11
freq.     586.90  E(vib)   ...       0.10
freq.     601.91  E(vib)   ...       0.10
freq.     633.68  E(vib)   ...       0.09
freq.     636.15  E(vib)   ...       0.09
freq.     701.42  E(vib)   ...       0.07
freq.     716.05  E(vib)   ...       0.07
freq.     744.61  E(vib)   ...       0.06
freq.     763.36  E(vib)   ...       0.06
freq.     770.08  E(vib)   ...       0.05
freq.     810.85  E(vib)   ...       0.05
freq.     841.20  E(vib)   ...       0.04
freq.     863.71  E(vib)   ...       0.04
freq.     871.64  E(vib)   ...       0.04
freq.     927.17  E(vib)   ...       0.03
freq.     957.96  E(vib)   ...       0.03
freq.     975.76  E(vib)   ...       0.03
freq.    1000.03  E(vib)   ...       0.02
freq.    1002.21  E(vib)   ...       0.02
freq.    1011.94  E(vib)   ...       0.02
freq.    1014.98  E(vib)   ...       0.02
freq.    1046.64  E(vib)   ...       0.02
freq.    1053.64  E(vib)   ...       0.02
freq.    1055.66  E(vib)   ...       0.02
freq.    1060.65  E(vib)   ...       0.02
freq.    1062.30  E(vib)   ...       0.02
freq.    1087.39  E(vib)   ...       0.02
freq.    1090.39  E(vib)   ...       0.02
freq.    1126.88  E(vib)   ...       0.01
freq.    1135.14  E(vib)   ...       0.01
freq.    1165.79  E(vib)   ...       0.01
freq.    1181.49  E(vib)   ...       0.01
freq.    1183.93  E(vib)   ...       0.01
freq.    1204.32  E(vib)   ...       0.01
freq.    1212.36  E(vib)   ...       0.01
freq.    1234.53  E(vib)   ...       0.01
freq.    1243.61  E(vib)   ...       0.01
freq.    1283.30  E(vib)   ...       0.01
freq.    1288.56  E(vib)   ...       0.01
freq.    1297.89  E(vib)   ...       0.01
freq.    1315.93  E(vib)   ...       0.01
freq.    1350.59  E(vib)   ...       0.01
freq.    1359.82  E(vib)   ...       0.01
freq.    1367.56  E(vib)   ...       0.01
freq.    1370.06  E(vib)   ...       0.01
freq.    1388.84  E(vib)   ...       0.00
freq.    1410.81  E(vib)   ...       0.00
freq.    1422.47  E(vib)   ...       0.00
freq.    1442.53  E(vib)   ...       0.00
freq.    1457.85  E(vib)   ...       0.00
freq.    1476.00  E(vib)   ...       0.00
freq.    1484.45  E(vib)   ...       0.00
freq.    1489.43  E(vib)   ...       0.00
freq.    1497.24  E(vib)   ...       0.00
freq.    1499.31  E(vib)   ...       0.00
freq.    1502.77  E(vib)   ...       0.00
freq.    1504.25  E(vib)   ...       0.00
freq.    1511.09  E(vib)   ...       0.00
freq.    1516.35  E(vib)   ...       0.00
freq.    1520.77  E(vib)   ...       0.00
freq.    1528.91  E(vib)   ...       0.00
freq.    1536.52  E(vib)   ...       0.00
freq.    1542.69  E(vib)   ...       0.00
freq.    1553.38  E(vib)   ...       0.00
freq.    1639.28  E(vib)   ...       0.00
freq.    1660.38  E(vib)   ...       0.00
freq.    1700.45  E(vib)   ...       0.00
freq.    1708.46  E(vib)   ...       0.00
freq.    3033.51  E(vib)   ...       0.00
freq.    3035.84  E(vib)   ...       0.00
freq.    3038.25  E(vib)   ...       0.00
freq.    3061.48  E(vib)   ...       0.00
freq.    3066.40  E(vib)   ...       0.00
freq.    3077.48  E(vib)   ...       0.00
freq.    3080.95  E(vib)   ...       0.00
freq.    3084.64  E(vib)   ...       0.00
freq.    3099.80  E(vib)   ...       0.00
freq.    3109.77  E(vib)   ...       0.00
freq.    3119.57  E(vib)   ...       0.00
freq.    3132.66  E(vib)   ...       0.00
freq.    3137.36  E(vib)   ...       0.00
freq.    3166.71  E(vib)   ...       0.00
freq.    3171.01  E(vib)   ...       0.00
freq.    3176.12  E(vib)   ...       0.00
freq.    3178.67  E(vib)   ...       0.00
freq.    3189.31  E(vib)   ...       0.00
freq.    3189.33  E(vib)   ...       0.00
freq.    3194.48  E(vib)   ...       0.00
freq.    3196.94  E(vib)   ...       0.00
freq.    3208.83  E(vib)   ...       0.00

------------
INNER ENERGY
------------

The inner energy is: U= E(el) + E(ZPE) + E(vib) + E(rot) + E(trans)
    E(el)   - is the total energy from the electronic structure calculation
              = E(kin-el) + E(nuc-el) + E(el-el) + E(nuc-nuc)
    E(ZPE)  - the the zero temperature vibrational energy from the frequency calculation
    E(vib)  - the the finite temperature correction to E(ZPE) due to population
              of excited vibrational states
    E(rot)  - is the rotational thermal energy
    E(trans)- is the translational thermal energy

Summary of contributions to the inner energy U:
Electronic energy                ...   -844.37855956 Eh
Zero point energy                ...      0.35493010 Eh     222.72 kcal/mol
Thermal vibrational correction   ...      0.01724414 Eh      10.82 kcal/mol
Thermal rotational correction    ...      0.00141627 Eh       0.89 kcal/mol
Thermal translational correction ...      0.00141627 Eh       0.89 kcal/mol
-----------------------------------------------------------------------
Total thermal energy                   -844.00355277 Eh

Summary of corrections to the electronic energy:
(perhaps to be used in another calculation)
Total thermal correction                  0.02007668 Eh      12.60 kcal/mol

Rotational constants in cm-1:     0.018305     0.007371     0.006192

                             ****ORCA TERMINATED NORMALLY****
TOTAL RUN TIME: 0 days 0 hours 48 minutes 52 seconds 150 msec
