                         Program Version 5.0.4 -  RELEASE  -
|  1> ! OPT FREQ B3LYP 6-31G(d) D4 AUTOAUX
|  2> ! CPCM
|  3>
|  4> %cpcm
|  5> epsilon 9.8629
|  6> refrac  1.4295
|  7> end
|  8>
|  9> %PAL NPROCS 4 END
| 10>
| 11> %maxcore 3375
| 12>
| 13> *xyzfile 0 1 /users/fjb15167/WWenergy/structures/Nfn.xyz
| 14>
| 15>                          ****END OF INPUT****
 Total Charge           Charge          ....    0
 Multiplicity           Mult            ....    1
 Number of Electrons    NEL             ....  118
Dispersion correction           -0.060625108
FINAL SINGLE POINT ENERGY      -726.508751243157
Dispersion correction            ... Starting D4
Dispersion correction           -0.060095064
FINAL SINGLE POINT ENERGY      -726.509411011682
Dispersion correction            ... Starting D4
Dispersion correction           -0.060070273
FINAL SINGLE POINT ENERGY      -726.509588193819
Dispersion correction            ... Starting D4
FINAL SINGLE POINT ENERGY      -726.509667376894
FINAL SINGLE POINT ENERGY      -726.509705105388
FINAL SINGLE POINT ENERGY      -726.509727427829
FINAL SINGLE POINT ENERGY      -726.509738761333
FINAL SINGLE POINT ENERGY      -726.509746561512
FINAL SINGLE POINT ENERGY      -726.509757387436
FINAL SINGLE POINT ENERGY      -726.509771308756
FINAL SINGLE POINT ENERGY      -726.509734673928
FINAL SINGLE POINT ENERGY      -726.509995887856
FINAL SINGLE POINT ENERGY      -726.510327467856
FINAL SINGLE POINT ENERGY      -726.510495254314
FINAL SINGLE POINT ENERGY      -726.510535743901
FINAL SINGLE POINT ENERGY      -726.510552327713
FINAL SINGLE POINT ENERGY      -726.510559108866
Dispersion correction           -0.059468008
FINAL SINGLE POINT ENERGY      -726.510561067721
Dispersion correction            ... Starting D4
Dispersion correction           -0.059459633
FINAL SINGLE POINT ENERGY      -726.510564313845
Dispersion correction            ... Starting D4
                    ***********************HURRAY********************

CARTESIAN COORDINATES (ANGSTROEM)
---------------------------------
  C      1.255576    2.390157   -1.581373
  H      2.059513    2.773050   -0.944436
  H      0.908223    3.188448   -2.239619
  H      1.673465    1.574856   -2.181434
  C      0.076842    1.908900   -0.758379
  N      0.286852    0.839152    0.074748
  C      1.531894    0.134129    0.159161
  C      2.586447    0.674280    0.901359
  C      1.679170   -1.101246   -0.479941
  C      3.797659   -0.013928    0.989257
  H      2.450392    1.627670    1.403844
  C      2.888569   -1.790814   -0.378252
  H      0.843594   -1.497609   -1.047123
  C      3.950455   -1.247384    0.350267
  H      4.617677    0.409951    1.562631
  H      3.003649   -2.750411   -0.875323
  H      4.892391   -1.784461    0.422411
  C     -0.873210    0.316011    0.777220
  H     -0.525311   -0.375555    1.550409
  H     -1.389508    1.143057    1.269341
  C     -1.830664   -0.419571   -0.180012
  N     -3.073773   -0.688722    0.298760
  O     -1.458216   -0.757328   -1.308160
  O     -1.033112    2.442959   -0.824729
  C     -3.555437   -0.246776    1.604701
  H     -3.985055    0.763350    1.559107
  H     -4.334960   -0.938041    1.937854
  H     -2.757909   -0.262044    2.349010
  C     -4.074166   -1.279913   -0.584043
  H     -4.509937   -2.169553   -0.114969
  H     -4.879030   -0.560841   -0.784531
  H     -3.595080   -1.556772   -1.521756

 Multiplicity           Mult            ....    1
 Number of Electrons    NEL             ....  118
 Basis Dimension        Dim             ....  256

ORBITAL ENERGIES
----------------

  NO   OCC          E(Eh)            E(eV)
   0   2.0000     -19.106932      -519.9260
   1   2.0000     -19.106583      -519.9166
   2   2.0000     -14.357826      -390.6963
   3   2.0000     -14.356671      -390.6649
   4   2.0000     -10.280157      -279.7373
   5   2.0000     -10.278977      -279.7052
   6   2.0000     -10.220960      -278.1265
   7   2.0000     -10.215716      -277.9838
   8   2.0000     -10.204824      -277.6874
   9   2.0000     -10.196308      -277.4556
  10   2.0000     -10.184336      -277.1299
  11   2.0000     -10.183904      -277.1181
  12   2.0000     -10.183408      -277.1046
  13   2.0000     -10.182920      -277.0913
  14   2.0000     -10.180375      -277.0221
  15   2.0000     -10.169719      -276.7321
  16   2.0000      -1.034712       -28.1560
  17   2.0000      -1.022265       -27.8172
  18   2.0000      -0.936897       -25.4943
  19   2.0000      -0.928236       -25.2586
  20   2.0000      -0.845728       -23.0134
  21   2.0000      -0.760894       -20.7050
  22   2.0000      -0.744796       -20.2669
  23   2.0000      -0.739409       -20.1204
  24   2.0000      -0.719617       -19.5818
  25   2.0000      -0.705258       -19.1911
  26   2.0000      -0.668772       -18.1982
  27   2.0000      -0.618164       -16.8211
  28   2.0000      -0.606496       -16.5036
  29   2.0000      -0.558852       -15.2071
  30   2.0000      -0.536680       -14.6038
  31   2.0000      -0.509773       -13.8716
  32   2.0000      -0.499864       -13.6020
  33   2.0000      -0.488641       -13.2966
  34   2.0000      -0.474257       -12.9052
  35   2.0000      -0.466392       -12.6912
  36   2.0000      -0.457249       -12.4424
  37   2.0000      -0.450599       -12.2614
  38   2.0000      -0.438456       -11.9310
  39   2.0000      -0.429228       -11.6799
  40   2.0000      -0.418542       -11.3891
  41   2.0000      -0.413769       -11.2592
  42   2.0000      -0.401424       -10.9233
  43   2.0000      -0.398854       -10.8534
  44   2.0000      -0.395880       -10.7724
  45   2.0000      -0.395147       -10.7525
  46   2.0000      -0.386522       -10.5178
  47   2.0000      -0.374032       -10.1779
  48   2.0000      -0.365003        -9.9322
  49   2.0000      -0.362059        -9.8521
  50   2.0000      -0.353499        -9.6192
  51   2.0000      -0.343845        -9.3565
  52   2.0000      -0.339325        -9.2335
  53   2.0000      -0.265827        -7.2335
  54   2.0000      -0.254986        -6.9385
  55   2.0000      -0.251946        -6.8558
  56   2.0000      -0.246769        -6.7149
  57   2.0000      -0.236530        -6.4363
  58   2.0000      -0.232804        -6.3349
  59   0.0000      -0.006877        -0.1871
  60   0.0000      -0.003138        -0.0854
  61   0.0000       0.026438         0.7194
  62   0.0000       0.033351         0.9075
  63   0.0000       0.097711         2.6589

MULLIKEN ATOMIC CHARGES
-----------------------
   0 C :   -0.555441
   1 H :    0.190325
   2 H :    0.177815
   3 H :    0.188880
   4 C :    0.526012
   5 N :   -0.429445
   6 C :    0.199494
   7 C :   -0.147861
   8 C :   -0.148141
   9 C :   -0.161892
  10 H :    0.157976
  11 C :   -0.161779
  12 H :    0.166106
  13 C :   -0.134441
  14 H :    0.155955
  15 H :    0.155736
  16 H :    0.153372
  17 C :   -0.268035
  18 H :    0.203393
  19 H :    0.196582
  20 C :    0.558837
  21 N :   -0.376343
  22 O :   -0.529911
  23 O :   -0.529513
  24 C :   -0.336867
  25 H :    0.178500
  26 H :    0.181287
  27 H :    0.191149
  28 C :   -0.332035
  29 H :    0.170963
  30 H :    0.171542
  31 H :    0.187781
Sum of atomic charges:   -0.0000000

LOEWDIN ATOMIC CHARGES
----------------------
   0 C :   -0.393189
   1 H :    0.155282
   2 H :    0.148024
   3 H :    0.154802
   4 C :    0.122809
   5 N :   -0.046997
   6 C :    0.013555
   7 C :   -0.135394
   8 C :   -0.138362
   9 C :   -0.132642
  10 H :    0.146152
  11 C :   -0.131661
  12 H :    0.150737
  13 C :   -0.132708
  14 H :    0.143349
  15 H :    0.142911
  16 H :    0.142360
  17 C :   -0.183087
  18 H :    0.160425
  19 H :    0.154837
  20 C :    0.106429
  21 N :   -0.076788
  22 O :   -0.329424
  23 O :   -0.326026
  24 C :   -0.277294
  25 H :    0.134682
  26 H :    0.143817
  27 H :    0.145673
  28 C :   -0.278624
  29 H :    0.134268
  30 H :    0.133205
  31 H :    0.148879

  Mayer bond orders larger than 0.100000
B(  0-C ,  1-H ) :   0.9225 B(  0-C ,  2-H ) :   0.9395 B(  0-C ,  3-H ) :   0.9238
B(  0-C ,  4-C ) :   0.9996 B(  4-C ,  5-N ) :   1.1393 B(  4-C , 23-O ) :   1.8074
B(  5-N ,  6-C ) :   0.8933 B(  5-N , 17-C ) :   0.9620 B(  6-C ,  7-C ) :   1.4321
B(  6-C ,  8-C ) :   1.4421 B(  7-C ,  9-C ) :   1.4282 B(  7-C , 10-H ) :   0.9179
B(  8-C , 11-C ) :   1.4186 B(  8-C , 12-H ) :   0.8952 B(  9-C , 13-C ) :   1.4484
B(  9-C , 14-H ) :   0.9238 B( 11-C , 13-C ) :   1.4464 B( 11-C , 15-H ) :   0.9249
B( 13-C , 16-H ) :   0.9269 B( 17-C , 18-H ) :   0.9089 B( 17-C , 19-H ) :   0.9052
B( 17-C , 20-C ) :   0.9130 B( 20-C , 21-N ) :   1.1818 B( 20-C , 22-O ) :   1.7498
B( 21-N , 24-C ) :   0.9507 B( 21-N , 28-C ) :   0.9474 B( 24-C , 25-H ) :   0.9297
B( 24-C , 26-H ) :   0.9357 B( 24-C , 27-H ) :   0.9297 B( 28-C , 29-H ) :   0.9377
B( 28-C , 30-H ) :   0.9375 B( 28-C , 31-H ) :   0.9248

Dispersion correction           -0.059456735
FINAL SINGLE POINT ENERGY      -726.510565227793

DIPOLE MOMENT
-------------
                                X             Y             Z
Electronic contribution:      5.86234       0.90319      -1.41232
Nuclear contribution   :     -5.56714      -1.76674       3.31066
                        -----------------------------------------
Total Dipole Moment    :      0.29520      -0.86355       1.89835
                        -----------------------------------------
Magnitude (a.u.)       :      2.10632
Magnitude (Debye)      :      5.35383

Dispersion correction in the Hessian             ... Starting D4

VIBRATIONAL FREQUENCIES
-----------------------

Scaling factor for frequencies =  1.000000000  (already applied!)

   0:         0.00 cm**-1
   1:         0.00 cm**-1
   2:         0.00 cm**-1
   3:         0.00 cm**-1
   4:         0.00 cm**-1
   5:         0.00 cm**-1
   6:        24.23 cm**-1
   7:        32.31 cm**-1
   8:        60.56 cm**-1
   9:        73.60 cm**-1
  10:        92.39 cm**-1
  11:        97.28 cm**-1
  12:       107.31 cm**-1
  13:       116.03 cm**-1
  14:       133.30 cm**-1
  15:       137.28 cm**-1
  16:       220.23 cm**-1
  17:       229.31 cm**-1
  18:       247.59 cm**-1
  19:       273.70 cm**-1
  20:       332.23 cm**-1
  21:       389.46 cm**-1
  22:       403.73 cm**-1
  23:       425.38 cm**-1
  24:       444.53 cm**-1
  25:       449.91 cm**-1
  26:       503.18 cm**-1
  27:       552.35 cm**-1
  28:       588.05 cm**-1
  29:       595.96 cm**-1
  30:       622.33 cm**-1
  31:       635.56 cm**-1
  32:       663.65 cm**-1
  33:       716.89 cm**-1
  34:       746.96 cm**-1
  35:       794.03 cm**-1
  36:       823.78 cm**-1
  37:       866.08 cm**-1
  38:       923.18 cm**-1
  39:       946.03 cm**-1
  40:       971.95 cm**-1
  41:       985.52 cm**-1
  42:      1007.90 cm**-1
  43:      1009.10 cm**-1
  44:      1019.25 cm**-1
  45:      1042.51 cm**-1
  46:      1061.52 cm**-1
  47:      1063.74 cm**-1
  48:      1089.24 cm**-1
  49:      1101.62 cm**-1
  50:      1131.75 cm**-1
  51:      1141.42 cm**-1
  52:      1171.04 cm**-1
  53:      1181.82 cm**-1
  54:      1183.60 cm**-1
  55:      1195.52 cm**-1
  56:      1264.54 cm**-1
  57:      1291.04 cm**-1
  58:      1330.46 cm**-1
  59:      1353.92 cm**-1
  60:      1358.47 cm**-1
  61:      1383.41 cm**-1
  62:      1408.74 cm**-1
  63:      1434.64 cm**-1
  64:      1442.66 cm**-1
  65:      1455.15 cm**-1
  66:      1479.29 cm**-1
  67:      1484.84 cm**-1
  68:      1490.06 cm**-1
  69:      1493.40 cm**-1
  70:      1497.62 cm**-1
  71:      1511.19 cm**-1
  72:      1514.46 cm**-1
  73:      1522.77 cm**-1
  74:      1542.93 cm**-1
  75:      1550.26 cm**-1
  76:      1640.15 cm**-1
  77:      1653.99 cm**-1
  78:      1720.43 cm**-1
  79:      1731.84 cm**-1
  80:      3038.15 cm**-1
  81:      3044.85 cm**-1
  82:      3068.58 cm**-1
  83:      3090.91 cm**-1
  84:      3098.69 cm**-1
  85:      3116.78 cm**-1
  86:      3133.01 cm**-1
  87:      3142.62 cm**-1
  88:      3164.81 cm**-1
  89:      3168.61 cm**-1
  90:      3190.04 cm**-1
  91:      3194.03 cm**-1
  92:      3198.13 cm**-1
  93:      3207.25 cm**-1
  94:      3215.56 cm**-1
  95:      3226.91 cm**-1

IR SPECTRUM
-----------

 Mode   freq       eps      Int      T**2         TX        TY        TZ
       cm**-1   L/(mol*cm) km/mol    a.u.
----------------------------------------------------------------------------
  6:     24.23   0.000419    2.12  0.005399  ( 0.013217 -0.060043  0.040243)
  7:     32.31   0.000626    3.16  0.006048  ( 0.008607  0.074714 -0.019805)
  8:     60.56   0.000644    3.26  0.003320  (-0.040449  0.031179 -0.026669)
  9:     73.60   0.001165    5.89  0.004939  (-0.043805 -0.033728 -0.043388)
 10:     92.39   0.000094    0.48  0.000318  (-0.003982  0.007177  0.015834)
 11:     97.28   0.000974    4.92  0.003125  (-0.006735  0.052381  0.018328)
 12:    107.31   0.000509    2.57  0.001479  (-0.009755 -0.009504 -0.035969)
 13:    116.03   0.000631    3.19  0.001696  ( 0.033793  0.022485 -0.006988)
 14:    133.30   0.000226    1.14  0.000529  (-0.008698 -0.014907 -0.015194)
 15:    137.28   0.000761    3.85  0.001730  ( 0.034856 -0.015180  0.016884)
 16:    220.23   0.001031    5.21  0.001461  (-0.002160 -0.034265  0.016806)
 17:    229.31   0.000296    1.49  0.000402  (-0.003037 -0.018767  0.006409)
 18:    247.59   0.000147    0.74  0.000186  ( 0.001850 -0.012304  0.005562)
 19:    273.70   0.001843    9.31  0.002101  (-0.012024 -0.034533  0.027641)
 20:    332.23   0.000477    2.41  0.000448  (-0.014443  0.008416 -0.012978)
 21:    389.46   0.006326   31.97  0.005069  (-0.061119 -0.036517  0.000335)
 22:    403.73   0.002451   12.38  0.001894  (-0.015353  0.032967 -0.023909)
 23:    425.38   0.000048    0.24  0.000035  (-0.005677  0.001418  0.000849)
 24:    444.53   0.000047    0.24  0.000033  ( 0.002985 -0.002445 -0.004216)
 25:    449.91   0.001065    5.38  0.000739  (-0.018358 -0.018682 -0.007259)
 26:    503.18   0.002202   11.13  0.001366  (-0.019091 -0.015986  0.027304)
 27:    552.35   0.005269   26.63  0.002977  (-0.009066 -0.038879  0.037189)
 28:    588.05   0.007171   36.24  0.003805  ( 0.044349  0.014504 -0.040351)
 29:    595.96   0.000848    4.28  0.000444  ( 0.012292  0.015920  0.006271)
 30:    622.33   0.002835   14.33  0.001422  ( 0.032127  0.003556  0.019413)
 31:    635.56   0.000765    3.86  0.000376  (-0.014448  0.004217 -0.012206)
 32:    663.65   0.000841    4.25  0.000396  (-0.009014  0.014958  0.009517)
 33:    716.89   0.009449   47.75  0.004113  ( 0.027399  0.027764 -0.050906)
 34:    746.96   0.001835    9.27  0.000767  ( 0.008397  0.014548 -0.022011)
 35:    794.03   0.003685   18.62  0.001448  (-0.003972 -0.009769  0.036565)
 36:    823.78   0.003774   19.07  0.001430  ( 0.011739 -0.012956 -0.033525)
 37:    866.08   0.000048    0.24  0.000017  ( 0.000452 -0.003380  0.002370)
 38:    923.18   0.001484    7.50  0.000502  (-0.010551  0.014260 -0.013671)
 39:    946.03   0.000400    2.02  0.000132  (-0.003406 -0.002535  0.010681)
 40:    971.95   0.000408    2.06  0.000131  ( 0.008567  0.007565 -0.000622)
 41:    985.52   0.000039    0.20  0.000012  (-0.002318 -0.000649  0.002571)
 42:   1007.90   0.004097   20.70  0.001268  ( 0.025939 -0.022918  0.008387)
 43:   1009.10   0.003663   18.51  0.001133  ( 0.019569 -0.023461  0.014127)
 44:   1019.25   0.000167    0.84  0.000051  ( 0.006317 -0.002957 -0.001571)
 45:   1042.51   0.005321   26.89  0.001593  ( 0.018705 -0.028952  0.020119)
 46:   1061.52   0.002733   13.81  0.000803  (-0.015184 -0.022483 -0.008213)
 47:   1063.74   0.002641   13.34  0.000775  (-0.015664  0.002108  0.022910)
 48:   1089.24   0.003588   18.13  0.001028  ( 0.012655 -0.012351 -0.026743)
 49:   1101.62   0.002490   12.59  0.000705  ( 0.012377 -0.012635 -0.019816)
 50:   1131.75   0.001644    8.31  0.000453  (-0.014786  0.000133  0.015319)
 51:   1141.42   0.010408   52.60  0.002846  (-0.049228 -0.017953  0.009992)
 52:   1171.04   0.025215  127.43  0.006719  (-0.076215 -0.022290  0.020341)
 53:   1181.82   0.008664   43.78  0.002288  ( 0.046033  0.012388  0.003905)
 54:   1183.60   0.000012    0.06  0.000003  (-0.000575  0.001599 -0.000469)
 55:   1195.52   0.000244    1.23  0.000064  (-0.007410  0.002709 -0.001242)
 56:   1264.54   0.012612   63.73  0.003112  (-0.043592  0.032055 -0.013585)
 57:   1291.04   0.012693   64.15  0.003068  (-0.045821 -0.028591 -0.012291)
 58:   1330.46   0.010051   50.79  0.002357  ( 0.004905 -0.035618  0.032629)
 59:   1353.92   0.025838  130.58  0.005955  ( 0.022864  0.061141 -0.041164)
 60:   1358.47   0.005011   25.32  0.001151  ( 0.019559  0.014474 -0.023643)
 61:   1383.41   0.011589   58.57  0.002614  (-0.047386  0.009267  0.016819)
 62:   1408.74   0.003824   19.32  0.000847  ( 0.022311 -0.018369  0.003443)
 63:   1434.64   0.051448  260.00  0.011191  ( 0.005727  0.089592 -0.055960)
 64:   1442.66   0.011440   57.82  0.002475  (-0.048022  0.010602  0.007494)
 65:   1455.15   0.012400   62.67  0.002659  ( 0.044349  0.001443  0.026276)
 66:   1479.29   0.015105   76.33  0.003186  ( 0.022948  0.026487 -0.044252)
 67:   1484.84   0.005501   27.80  0.001156  ( 0.033418 -0.002730 -0.005645)
 68:   1490.06   0.003914   19.78  0.000820  (-0.005583 -0.015720 -0.023268)
 69:   1493.40   0.000654    3.30  0.000137  (-0.003226 -0.009813 -0.005469)
 70:   1497.62   0.003990   20.17  0.000831  ( 0.001850 -0.005589 -0.028228)
 71:   1511.19   0.002338   11.81  0.000483  ( 0.017639 -0.004300  0.012375)
 72:   1514.46   0.002663   13.46  0.000549  (-0.012885 -0.018946 -0.004885)
 73:   1522.77   0.002285   11.55  0.000468  ( 0.004133  0.017063 -0.012653)
 74:   1542.93   0.019942  100.78  0.004033  (-0.053415  0.033601 -0.007159)
 75:   1550.26   0.017573   88.81  0.003537  (-0.057774 -0.013222  0.004974)
 76:   1640.15   0.001635    8.26  0.000311  (-0.002384  0.014827  0.009254)
 77:   1653.99   0.014080   71.16  0.002657  ( 0.045953 -0.022980  0.004095)
 78:   1720.43   0.146852  742.13  0.026637  ( 0.134909 -0.058074 -0.071161)
 79:   1731.84   0.059563  301.01  0.010733  ( 0.037831 -0.057791  0.077212)
 80:   3038.15   0.008751   44.22  0.000899  (-0.001590  0.021041  0.021299)
 81:   3044.85   0.016255   82.15  0.001666  (-0.040571  0.004111  0.001744)
 82:   3068.58   0.000762    3.85  0.000077  (-0.007834 -0.000314  0.004002)
 83:   3090.91   0.003287   16.61  0.000332  ( 0.012550  0.002790 -0.012908)
 84:   3098.69   0.009216   46.57  0.000928  ( 0.000243  0.028194 -0.011537)
 85:   3116.78   0.005117   25.86  0.000512  (-0.005401 -0.018369  0.012074)
 86:   3133.01   0.001200    6.06  0.000120  ( 0.003408  0.006068  0.008432)
 87:   3142.62   0.001610    8.14  0.000160  (-0.010756  0.005722  0.003388)
 88:   3164.81   0.003520   17.79  0.000347  (-0.015449 -0.002622 -0.010079)
 89:   3168.61   0.004201   21.23  0.000414  (-0.008738  0.015423 -0.009976)
 90:   3190.04   0.000087    0.44  0.000009  (-0.000100 -0.002705 -0.001086)
 91:   3194.03   0.000710    3.59  0.000069  ( 0.000051 -0.003059 -0.007745)
 92:   3198.13   0.002760   13.95  0.000269  (-0.010825 -0.008404 -0.009027)
 93:   3207.25   0.006542   33.06  0.000637  ( 0.011790 -0.021245 -0.006797)
 94:   3215.56   0.002977   15.04  0.000289  (-0.015142 -0.001771 -0.007514)
 95:   3226.91   0.001265    6.39  0.000122  ( 0.009434 -0.005677 -0.001045)

--------------------------
THERMOCHEMISTRY AT 298.15K
--------------------------

Temperature         ... 298.15 K
Pressure            ... 1.00 atm
Total Mass          ... 220.27 AMU

Throughout the following assumptions are being made:
  (1) The electronic state is orbitally nondegenerate
  (2) There are no thermally accessible electronically excited states
  (3) Hindered rotations indicated by low frequency modes are not
      treated as such but are treated as vibrations and this may
      cause some error
  (4) All equations used are the standard statistical mechanics
      equations for an ideal gas
  (5) All vibrations are strictly harmonic

freq.      24.23  E(vib)   ...       0.56
freq.      32.31  E(vib)   ...       0.55
freq.      60.56  E(vib)   ...       0.51
freq.      73.60  E(vib)   ...       0.49
freq.      92.39  E(vib)   ...       0.47
freq.      97.28  E(vib)   ...       0.46
freq.     107.31  E(vib)   ...       0.45
freq.     116.03  E(vib)   ...       0.44
freq.     133.30  E(vib)   ...       0.42
freq.     137.28  E(vib)   ...       0.42
freq.     220.23  E(vib)   ...       0.33
freq.     229.31  E(vib)   ...       0.32
freq.     247.59  E(vib)   ...       0.31
freq.     273.70  E(vib)   ...       0.28
freq.     332.23  E(vib)   ...       0.24
freq.     389.46  E(vib)   ...       0.20
freq.     403.73  E(vib)   ...       0.19
freq.     425.38  E(vib)   ...       0.18
freq.     444.53  E(vib)   ...       0.17
freq.     449.91  E(vib)   ...       0.17
freq.     503.18  E(vib)   ...       0.14
freq.     552.35  E(vib)   ...       0.12
freq.     588.05  E(vib)   ...       0.10
freq.     595.96  E(vib)   ...       0.10
freq.     622.33  E(vib)   ...       0.09
freq.     635.56  E(vib)   ...       0.09
freq.     663.65  E(vib)   ...       0.08
freq.     716.89  E(vib)   ...       0.07
freq.     746.96  E(vib)   ...       0.06
freq.     794.03  E(vib)   ...       0.05
freq.     823.78  E(vib)   ...       0.05
freq.     866.08  E(vib)   ...       0.04
freq.     923.18  E(vib)   ...       0.03
freq.     946.03  E(vib)   ...       0.03
freq.     971.95  E(vib)   ...       0.03
freq.     985.52  E(vib)   ...       0.02
freq.    1007.90  E(vib)   ...       0.02
freq.    1009.10  E(vib)   ...       0.02
freq.    1019.25  E(vib)   ...       0.02
freq.    1042.51  E(vib)   ...       0.02
freq.    1061.52  E(vib)   ...       0.02
freq.    1063.74  E(vib)   ...       0.02
freq.    1089.24  E(vib)   ...       0.02
freq.    1101.62  E(vib)   ...       0.02
freq.    1131.75  E(vib)   ...       0.01
freq.    1141.42  E(vib)   ...       0.01
freq.    1171.04  E(vib)   ...       0.01
freq.    1181.82  E(vib)   ...       0.01
freq.    1183.60  E(vib)   ...       0.01
freq.    1195.52  E(vib)   ...       0.01
freq.    1264.54  E(vib)   ...       0.01
freq.    1291.04  E(vib)   ...       0.01
freq.    1330.46  E(vib)   ...       0.01
freq.    1353.92  E(vib)   ...       0.01
freq.    1358.47  E(vib)   ...       0.01
freq.    1383.41  E(vib)   ...       0.00
freq.    1408.74  E(vib)   ...       0.00
freq.    1434.64  E(vib)   ...       0.00
freq.    1442.66  E(vib)   ...       0.00
freq.    1455.15  E(vib)   ...       0.00
freq.    1479.29  E(vib)   ...       0.00
freq.    1484.84  E(vib)   ...       0.00
freq.    1490.06  E(vib)   ...       0.00
freq.    1493.40  E(vib)   ...       0.00
freq.    1497.62  E(vib)   ...       0.00
freq.    1511.19  E(vib)   ...       0.00
freq.    1514.46  E(vib)   ...       0.00
freq.    1522.77  E(vib)   ...       0.00
freq.    1542.93  E(vib)   ...       0.00
freq.    1550.26  E(vib)   ...       0.00
freq.    1640.15  E(vib)   ...       0.00
freq.    1653.99  E(vib)   ...       0.00
freq.    1720.43  E(vib)   ...       0.00
freq.    1731.84  E(vib)   ...       0.00
freq.    3038.15  E(vib)   ...       0.00
freq.    3044.85  E(vib)   ...       0.00
freq.    3068.58  E(vib)   ...       0.00
freq.    3090.91  E(vib)   ...       0.00
freq.    3098.69  E(vib)   ...       0.00
freq.    3116.78  E(vib)   ...       0.00
freq.    3133.01  E(vib)   ...       0.00
freq.    3142.62  E(vib)   ...       0.00
freq.    3164.81  E(vib)   ...       0.00
freq.    3168.61  E(vib)   ...       0.00
freq.    3190.04  E(vib)   ...       0.00
freq.    3194.03  E(vib)   ...       0.00
freq.    3198.13  E(vib)   ...       0.00
freq.    3207.25  E(vib)   ...       0.00
freq.    3215.56  E(vib)   ...       0.00
freq.    3226.91  E(vib)   ...       0.00

------------
INNER ENERGY
------------

The inner energy is: U= E(el) + E(ZPE) + E(vib) + E(rot) + E(trans)
    E(el)   - is the total energy from the electronic structure calculation
              = E(kin-el) + E(nuc-el) + E(el-el) + E(nuc-nuc)
    E(ZPE)  - the the zero temperature vibrational energy from the frequency calculation
    E(vib)  - the the finite temperature correction to E(ZPE) due to population
              of excited vibrational states
    E(rot)  - is the rotational thermal energy
    E(trans)- is the translational thermal energy

Summary of contributions to the inner energy U:
Electronic energy                ...   -726.51056523 Eh
Zero point energy                ...      0.26764154 Eh     167.95 kcal/mol
Thermal vibrational correction   ...      0.01367863 Eh       8.58 kcal/mol
Thermal rotational correction    ...      0.00141627 Eh       0.89 kcal/mol
Thermal translational correction ...      0.00141627 Eh       0.89 kcal/mol
-----------------------------------------------------------------------
Total thermal energy                   -726.22641251 Eh

Summary of corrections to the electronic energy:
(perhaps to be used in another calculation)
Total thermal correction                  0.01651118 Eh      10.36 kcal/mol
Non-thermal (ZPE) correction              0.26764154 Eh     167.95 kcal/mol
-----------------------------------------------------------------------
Total correction                          0.28415271 Eh     178.31 kcal/mol

--------
ENTHALPY
--------

The enthalpy is H = U + kB*T
                kB is Boltzmann's constant
Total free energy                 ...   -726.22641251 Eh
Thermal Enthalpy correction       ...      0.00094421 Eh       0.59 kcal/mol
-----------------------------------------------------------------------
Total Enthalpy                    ...   -726.22546831 Eh

Note: Rotational entropy computed according to Herzberg
Infrared and Raman Spectra, Chapter V,1, Van Nostrand Reinhold, 1945
Point Group:  C2v, Symmetry Number:   2
Rotational constants in cm-1:     0.030067     0.010912     0.009492

Vibrational entropy computed according to the QRRHO of S. Grimme
Chem.Eur.J. 2012 18 9955

-------

                             ****ORCA TERMINATED NORMALLY****
TOTAL RUN TIME: 0 days 0 hours 49 minutes 24 seconds 144 msec
