                         Program Version 5.0.4 -  RELEASE  -
|  1> ! OPT FREQ B3LYP 6-31G(d) D4 AUTOAUX
|  2>
|  3> %PAL NPROCS 4 END
|  4>
|  5> %maxcore 3375
|  6>
|  7> *xyzfile 0 1 /users/fjb15167/WWenergy/structures/NfeCl.xyz
|  8>
|  9>                          ****END OF INPUT****
 Total Charge           Charge          ....    0
 Multiplicity           Mult            ....    1
 Number of Electrons    NEL             ....  150
Dispersion correction           -0.075355436
FINAL SINGLE POINT ENERGY     -1264.607176244867
Dispersion correction            ... Starting D4
Dispersion correction           -0.074575841
FINAL SINGLE POINT ENERGY     -1264.607595031637
Dispersion correction            ... Starting D4
Dispersion correction           -0.074732754
FINAL SINGLE POINT ENERGY     -1264.607670377217
Dispersion correction            ... Starting D4
FINAL SINGLE POINT ENERGY     -1264.607725851997
FINAL SINGLE POINT ENERGY     -1264.607748283358
FINAL SINGLE POINT ENERGY     -1264.607776819031
FINAL SINGLE POINT ENERGY     -1264.607800850096
FINAL SINGLE POINT ENERGY     -1264.607816682590
FINAL SINGLE POINT ENERGY     -1264.607828480072
Dispersion correction           -0.074750727
FINAL SINGLE POINT ENERGY     -1264.607831240651
Dispersion correction            ... Starting D4
Dispersion correction           -0.074733707
FINAL SINGLE POINT ENERGY     -1264.607832342752
Dispersion correction            ... Starting D4
                    ***********************HURRAY********************

CARTESIAN COORDINATES (ANGSTROEM)
---------------------------------
  C      3.137900    3.184621    0.321379
  H      2.409122    3.018278    1.121457
  H      2.640729    3.761541   -0.467259
  H      3.972259    3.767584    0.712985
  C      3.705608    1.882713   -0.223229
  O      4.918712    1.674619   -0.226606
  N      2.809577    0.967180   -0.718189
  C      3.313888   -0.249068   -1.354838
  H      2.950562   -0.294099   -2.386451
  H      4.401587   -0.188965   -1.363047
  C      1.355124    1.118711   -0.673248
  H      1.079022    2.162818   -0.847140
  H      0.948983    0.538573   -1.506401
  C      0.712315    0.614594    0.639644
  H      1.179182   -0.335154    0.915053
  H      0.923559    1.320241    1.451774
  C     -0.776319    0.424691    0.477203
  C     -1.261103   -0.702393   -0.202896
  C     -1.691844    1.370478    0.948468
  C     -2.627857   -0.882639   -0.403795
  H     -0.556525   -1.441613   -0.577920
  C     -3.064259    1.205356    0.756724
  H     -1.332521    2.249236    1.479591
  C     -3.518220    0.076043    0.080035
  H     -3.001535   -1.756664   -0.926875
  H     -3.771359    1.939724    1.127862
  C      2.770533   -1.518296   -0.683950
  N      3.347023   -1.937228    0.480762
  O      1.807551   -2.095889   -1.194220
  C      4.424850   -1.261511    1.189869
  H      4.072246   -0.926596    2.175502
  H      5.258087   -1.958276    1.349797
  H      4.793485   -0.391176    0.649256
  C      2.801678   -3.110826    1.148613
  H      2.340902   -2.830806    2.106110
  H      2.050642   -3.561627    0.501557
  H      3.602763   -3.832878    1.349979
  Cl    -5.245349   -0.146295   -0.165556

 Multiplicity           Mult            ....    1
 Number of Electrons    NEL             ....  150
 Basis Dimension        Dim             ....  308

ORBITAL ENERGIES
----------------

  NO   OCC          E(Eh)            E(eV)
   0   2.0000    -101.521500     -2762.5405
   1   2.0000     -19.112148      -520.0680
   2   2.0000     -19.110777      -520.0307
   3   2.0000     -14.367107      -390.9489
   4   2.0000     -14.366768      -390.9396
   5   2.0000     -10.288413      -279.9619
   6   2.0000     -10.284188      -279.8470
   7   2.0000     -10.241065      -278.6735
   8   2.0000     -10.224767      -278.2301
   9   2.0000     -10.218607      -278.0624
  10   2.0000     -10.210396      -277.8390
  11   2.0000     -10.207351      -277.7561
  12   2.0000     -10.196040      -277.4483
  13   2.0000     -10.193406      -277.3767
  14   2.0000     -10.191593      -277.3273
  15   2.0000     -10.191530      -277.3256
  16   2.0000     -10.190797      -277.3057
  17   2.0000     -10.187756      -277.2229
  18   2.0000     -10.185234      -277.1543
  19   2.0000      -9.453661      -257.2472
  20   2.0000      -7.216747      -196.3777
  21   2.0000      -7.207144      -196.1164
  22   2.0000      -7.206842      -196.1081
  23   2.0000      -1.038462       -28.2580
  24   2.0000      -1.031272       -28.0623
  25   2.0000      -0.940787       -25.6001
  26   2.0000      -0.934897       -25.4398
  27   2.0000      -0.884856       -24.0782
  28   2.0000      -0.838667       -22.8213
  29   2.0000      -0.784355       -21.3434
  30   2.0000      -0.765002       -20.8168
  31   2.0000      -0.752882       -20.4870
  32   2.0000      -0.731287       -19.8993
  33   2.0000      -0.720503       -19.6059
  34   2.0000      -0.710373       -19.3302
  35   2.0000      -0.679174       -18.4813
  36   2.0000      -0.649520       -17.6743
  37   2.0000      -0.617884       -16.8135
  38   2.0000      -0.582096       -15.8396
  39   2.0000      -0.560500       -15.2520
  40   2.0000      -0.545726       -14.8500
  41   2.0000      -0.521501       -14.1908
  42   2.0000      -0.507172       -13.8008
  43   2.0000      -0.491995       -13.3879
  44   2.0000      -0.488441       -13.2912
  45   2.0000      -0.475971       -12.9518
  46   2.0000      -0.469854       -12.7854
  47   2.0000      -0.465797       -12.6750
  48   2.0000      -0.461113       -12.5475
  49   2.0000      -0.453125       -12.3302
  50   2.0000      -0.432552       -11.7703
  51   2.0000      -0.426364       -11.6019
  52   2.0000      -0.423679       -11.5289
  53   2.0000      -0.414161       -11.2699
  54   2.0000      -0.411668       -11.2020
  55   2.0000      -0.405914       -11.0455
  56   2.0000      -0.403617       -10.9830
  57   2.0000      -0.401659       -10.9297
  58   2.0000      -0.400958       -10.9106
  59   2.0000      -0.390243       -10.6190
  60   2.0000      -0.382915       -10.4196
  61   2.0000      -0.380543       -10.3551
  62   2.0000      -0.374637       -10.1944
  63   2.0000      -0.365472        -9.9450
  64   2.0000      -0.355794        -9.6816
  65   2.0000      -0.350012        -9.5243
  66   2.0000      -0.341527        -9.2934
  67   2.0000      -0.321963        -8.7611
  68   2.0000      -0.305768        -8.3204
  69   2.0000      -0.262908        -7.1541
  70   2.0000      -0.257511        -7.0072
  71   2.0000      -0.254184        -6.9167
  72   2.0000      -0.244539        -6.6543
  73   2.0000      -0.243160        -6.6167
  74   2.0000      -0.231835        -6.3086
  75   0.0000      -0.009840        -0.2678
  76   0.0000      -0.007197        -0.1958
  77   0.0000       0.009616         0.2617
  78   0.0000       0.023464         0.6385
  79   0.0000       0.036438         0.9915

MULLIKEN ATOMIC CHARGES
-----------------------
   0 C :   -0.551818
   1 H :    0.168955
   2 H :    0.176207
   3 H :    0.189966
   4 C :    0.524933
   5 O :   -0.476143
   6 N :   -0.375057
   7 C :   -0.245790
   8 H :    0.176413
   9 H :    0.201815
  10 C :   -0.158747
  11 H :    0.157535
  12 H :    0.183290
  13 C :   -0.362864
  14 H :    0.173382
  15 H :    0.142541
  16 C :    0.153869
  17 C :   -0.190039
  18 C :   -0.178806
  19 C :   -0.127987
  20 H :    0.180516
  21 C :   -0.124635
  22 H :    0.126094
  23 C :   -0.069670
  24 H :    0.155444
  25 H :    0.150870
  26 C :    0.517730
  27 N :   -0.364548
  28 O :   -0.486208
  29 C :   -0.350790
  30 H :    0.152847
  31 H :    0.157062
  32 H :    0.218281
  33 C :   -0.324352
  34 H :    0.152872
  35 H :    0.202670
  36 H :    0.155997
  37 Cl:   -0.031833
Sum of atomic charges:   -0.0000000

LOEWDIN ATOMIC CHARGES
----------------------
   0 C :   -0.389395
   1 H :    0.140571
   2 H :    0.146172
   3 H :    0.154052
   4 C :    0.109644
   5 O :   -0.287331
   6 N :   -0.077787
   7 C :   -0.177758
   8 H :    0.142488
   9 H :    0.157942
  10 C :   -0.156280
  11 H :    0.131597
  12 H :    0.144229
  13 C :   -0.235840
  14 H :    0.141238
  15 H :    0.123187
  16 C :   -0.023818
  17 C :   -0.125660
  18 C :   -0.130086
  19 C :   -0.132067
  20 H :    0.152553
  21 C :   -0.136118
  22 H :    0.130750
  23 C :   -0.086150
  24 H :    0.146038
  25 H :    0.144109
  26 C :    0.093701
  27 N :   -0.077680
  28 O :   -0.295979
  29 C :   -0.287467
  30 H :    0.124180
  31 H :    0.126819
  32 H :    0.158053
  33 C :   -0.279235
  34 H :    0.123455
  35 H :    0.155969
  36 H :    0.127307
  37 Cl:    0.024596

  Mayer bond orders larger than 0.100000
B(  0-C ,  1-H ) :   0.9262 B(  0-C ,  2-H ) :   0.9289 B(  0-C ,  3-H ) :   0.9398
B(  0-C ,  4-C ) :   0.9804 B(  4-C ,  5-O ) :   1.7900 B(  4-C ,  6-N ) :   1.1332
B(  6-N ,  7-C ) :   0.9572 B(  6-N , 10-C ) :   0.9324 B(  7-C ,  8-H ) :   0.9190
B(  7-C ,  9-H ) :   0.8952 B(  7-C , 26-C ) :   0.9292 B( 10-C , 11-H ) :   0.9266
B( 10-C , 12-H ) :   0.9201 B( 10-C , 13-C ) :   0.9704 B( 13-C , 14-H ) :   0.9198
B( 13-C , 15-H ) :   0.9292 B( 13-C , 16-C ) :   0.9788 B( 16-C , 17-C ) :   1.4240
B( 16-C , 18-C ) :   1.4424 B( 17-C , 19-C ) :   1.4419 B( 17-C , 20-H ) :   0.8950
B( 18-C , 21-C ) :   1.4290 B( 18-C , 22-H ) :   0.9246 B( 19-C , 23-C ) :   1.4120
B( 19-C , 24-H ) :   0.9233 B( 21-C , 23-C ) :   1.4293 B( 21-C , 25-H ) :   0.9233
B( 23-C , 37-Cl) :   1.0041 B( 26-C , 27-N ) :   1.1638 B( 26-C , 28-O ) :   1.7560
B( 27-N , 28-O ) :   0.1006 B( 27-N , 29-C ) :   0.9535 B( 27-N , 33-C ) :   0.9533
B( 29-C , 30-H ) :   0.9367 B( 29-C , 31-H ) :   0.9365 B( 29-C , 32-H ) :   0.8891
B( 33-C , 34-H ) :   0.9385 B( 33-C , 35-H ) :   0.9190 B( 33-C , 36-H ) :   0.9406

Dispersion correction           -0.074712550
FINAL SINGLE POINT ENERGY     -1264.607831291938

DIPOLE MOMENT
-------------
                                X             Y             Z
Electronic contribution:    -29.50453      -0.88099      -5.87202
Nuclear contribution   :     30.05921       1.25538       6.68474
                        -----------------------------------------
Total Dipole Moment    :      0.55469       0.37439       0.81271
                        -----------------------------------------
Magnitude (a.u.)       :      1.05278
Magnitude (Debye)      :      2.67595

Dispersion correction in the Hessian             ... Starting D4

VIBRATIONAL FREQUENCIES
-----------------------

Scaling factor for frequencies =  1.000000000  (already applied!)

   0:         0.00 cm**-1
   1:         0.00 cm**-1
   2:         0.00 cm**-1
   3:         0.00 cm**-1
   4:         0.00 cm**-1
   5:         0.00 cm**-1
   6:        22.28 cm**-1
   7:        33.59 cm**-1
   8:        41.70 cm**-1
   9:        45.79 cm**-1
  10:        70.49 cm**-1
  11:        77.48 cm**-1
  12:       102.34 cm**-1
  13:       109.84 cm**-1
  14:       122.79 cm**-1
  15:       133.24 cm**-1
  16:       150.62 cm**-1
  17:       159.12 cm**-1
  18:       165.62 cm**-1
  19:       217.66 cm**-1
  20:       245.94 cm**-1
  21:       260.78 cm**-1
  22:       281.70 cm**-1
  23:       322.57 cm**-1
  24:       340.17 cm**-1
  25:       369.41 cm**-1
  26:       380.44 cm**-1
  27:       391.42 cm**-1
  28:       421.87 cm**-1
  29:       427.43 cm**-1
  30:       434.19 cm**-1
  31:       471.15 cm**-1
  32:       485.13 cm**-1
  33:       526.46 cm**-1
  34:       581.56 cm**-1
  35:       595.75 cm**-1
  36:       620.44 cm**-1
  37:       648.16 cm**-1
  38:       670.99 cm**-1
  39:       699.67 cm**-1
  40:       727.65 cm**-1
  41:       766.12 cm**-1
  42:       787.06 cm**-1
  43:       821.97 cm**-1
  44:       829.53 cm**-1
  45:       852.97 cm**-1
  46:       870.85 cm**-1
  47:       954.37 cm**-1
  48:       962.03 cm**-1
  49:       990.98 cm**-1
  50:      1003.10 cm**-1
  51:      1012.23 cm**-1
  52:      1029.27 cm**-1
  53:      1031.11 cm**-1
  54:      1034.21 cm**-1
  55:      1063.95 cm**-1
  56:      1093.23 cm**-1
  57:      1097.42 cm**-1
  58:      1112.04 cm**-1
  59:      1141.16 cm**-1
  60:      1144.03 cm**-1
  61:      1170.60 cm**-1
  62:      1190.13 cm**-1
  63:      1217.57 cm**-1
  64:      1221.72 cm**-1
  65:      1235.64 cm**-1
  66:      1253.48 cm**-1
  67:      1288.50 cm**-1
  68:      1298.20 cm**-1
  69:      1331.11 cm**-1
  70:      1337.46 cm**-1
  71:      1340.24 cm**-1
  72:      1363.90 cm**-1
  73:      1377.01 cm**-1
  74:      1410.29 cm**-1
  75:      1421.05 cm**-1
  76:      1448.86 cm**-1
  77:      1457.62 cm**-1
  78:      1462.16 cm**-1
  79:      1474.54 cm**-1
  80:      1494.92 cm**-1
  81:      1501.10 cm**-1
  82:      1515.41 cm**-1
  83:      1518.64 cm**-1
  84:      1521.42 cm**-1
  85:      1525.37 cm**-1
  86:      1534.15 cm**-1
  87:      1538.11 cm**-1
  88:      1542.43 cm**-1
  89:      1544.99 cm**-1
  90:      1570.64 cm**-1
  91:      1632.45 cm**-1
  92:      1658.81 cm**-1
  93:      1739.19 cm**-1
  94:      1747.51 cm**-1
  95:      3025.49 cm**-1
  96:      3033.79 cm**-1
  97:      3060.50 cm**-1
  98:      3064.47 cm**-1
  99:      3073.40 cm**-1
 100:      3082.46 cm**-1
 101:      3084.04 cm**-1
 102:      3085.03 cm**-1
 103:      3116.37 cm**-1
 104:      3123.91 cm**-1
 105:      3136.01 cm**-1
 106:      3169.54 cm**-1
 107:      3177.14 cm**-1
 108:      3181.58 cm**-1
 109:      3190.60 cm**-1
 110:      3191.15 cm**-1
 111:      3192.88 cm**-1
 112:      3222.64 cm**-1
 113:      3223.49 cm**-1

IR SPECTRUM
-----------

 Mode   freq       eps      Int      T**2         TX        TY        TZ
       cm**-1   L/(mol*cm) km/mol    a.u.
----------------------------------------------------------------------------
  6:     22.28   0.000151    0.76  0.002119  ( 0.027571 -0.026215 -0.025918)
  7:     33.59   0.000461    2.33  0.004285  ( 0.058163 -0.009213 -0.028583)
  8:     41.70   0.000116    0.59  0.000870  (-0.020401 -0.017153 -0.012620)
  9:     45.79   0.000359    1.81  0.002444  ( 0.016310 -0.011959 -0.045108)
 10:     70.49   0.000306    1.55  0.001354  (-0.011908  0.031272  0.015310)
 11:     77.48   0.000172    0.87  0.000692  (-0.010078  0.023664  0.005511)
 12:    102.34   0.000675    3.41  0.002058  ( 0.026538 -0.024505 -0.027440)
 13:    109.84   0.000648    3.28  0.001842  (-0.017528  0.036199 -0.014976)
 14:    122.79   0.001481    7.48  0.003764  ( 0.006738  0.048831 -0.036523)
 15:    133.24   0.000552    2.79  0.001294  (-0.019369  0.030250 -0.001910)
 16:    150.62   0.000190    0.96  0.000394  (-0.000792  0.019682  0.002464)
 17:    159.12   0.000186    0.94  0.000365  (-0.000717  0.017439 -0.007755)
 18:    165.62   0.000066    0.33  0.000125  (-0.002690 -0.006253 -0.008843)
 19:    217.66   0.000314    1.59  0.000450  (-0.013645  0.010521  0.012370)
 20:    245.94   0.000405    2.05  0.000514  (-0.006747  0.017365  0.012919)
 21:    260.78   0.000017    0.08  0.000020  ( 0.000353 -0.004432  0.000355)
 22:    281.70   0.001595    8.06  0.001767  (-0.024381  0.033277  0.008047)
 23:    322.57   0.000309    1.56  0.000299  ( 0.004545 -0.016419  0.002980)
 24:    340.17   0.000270    1.36  0.000248  (-0.006797 -0.002623 -0.013953)
 25:    369.41   0.001618    8.18  0.001367  (-0.013741  0.023618 -0.024911)
 26:    380.44   0.000003    0.01  0.000002  ( 0.000781  0.000746 -0.000951)
 27:    391.42   0.000994    5.02  0.000792  (-0.003947 -0.011856  0.025226)
 28:    421.87   0.000008    0.04  0.000006  ( 0.002365 -0.000061 -0.000015)
 29:    427.43   0.001446    7.31  0.001055  (-0.028539 -0.015497  0.000934)
 30:    434.19   0.002250   11.37  0.001617  (-0.037738 -0.012236  0.006574)
 31:    471.15   0.001470    7.43  0.000974  ( 0.029931  0.001924 -0.008622)
 32:    485.13   0.002871   14.51  0.001847  ( 0.018894 -0.034016 -0.018239)
 33:    526.46   0.002708   13.69  0.001605  ( 0.002954 -0.010587  0.038528)
 34:    581.56   0.001943    9.82  0.001043  (-0.004636 -0.026226  0.018256)
 35:    595.75   0.002220   11.22  0.001163  ( 0.014890  0.024384 -0.018614)
 36:    620.44   0.001151    5.82  0.000579  (-0.000108 -0.000481  0.024061)
 37:    648.16   0.000286    1.45  0.000138  (-0.010206 -0.003048 -0.004932)
 38:    670.99   0.004627   23.39  0.002152  (-0.043290 -0.007797 -0.014742)
 39:    699.67   0.000195    0.98  0.000087  (-0.006488  0.006495 -0.001598)
 40:    727.65   0.000436    2.20  0.000187  ( 0.008483  0.009582 -0.004811)
 41:    766.12   0.001824    9.22  0.000743  (-0.003462 -0.023646  0.013106)
 42:    787.06   0.001366    6.91  0.000542  (-0.019475  0.009812  0.008138)
 43:    821.97   0.004440   22.44  0.001685  ( 0.032516 -0.013037  0.021406)
 44:    829.53   0.002284   11.54  0.000859  ( 0.002458  0.012373 -0.026460)
 45:    852.97   0.000203    1.03  0.000074  (-0.000520 -0.000938  0.008559)
 46:    870.85   0.003203   16.18  0.001148  ( 0.005054  0.020231 -0.026698)
 47:    954.37   0.000116    0.58  0.000038  (-0.000741  0.003191 -0.005204)
 48:    962.03   0.000242    1.22  0.000078  (-0.004064  0.005797 -0.005322)
 49:    990.98   0.000009    0.05  0.000003  (-0.001261 -0.001130 -0.000265)
 50:   1003.10   0.003095   15.64  0.000963  (-0.026326  0.004799 -0.015707)
 51:   1012.23   0.004230   21.38  0.001304  ( 0.012161  0.026173 -0.021709)
 52:   1029.27   0.003095   15.64  0.000938  ( 0.010562  0.027180  0.009388)
 53:   1031.11   0.004935   24.94  0.001494  ( 0.027742  0.016213 -0.021476)
 54:   1034.21   0.006165   31.16  0.001860  (-0.039246 -0.009023 -0.015451)
 55:   1063.95   0.000848    4.28  0.000249  ( 0.000180  0.006250 -0.014475)
 56:   1093.23   0.002187   11.05  0.000624  (-0.020336 -0.004939 -0.013649)
 57:   1097.42   0.001260    6.37  0.000358  ( 0.001121 -0.010666  0.015593)
 58:   1112.04   0.009836   49.71  0.002760  ( 0.051189  0.009098  0.007564)
 59:   1141.16   0.000110    0.56  0.000030  (-0.002132 -0.004339 -0.002585)
 60:   1144.03   0.002184   11.04  0.000596  (-0.016371  0.002735 -0.017895)
 61:   1170.60   0.009789   49.47  0.002610  (-0.038647  0.024134 -0.023099)
 62:   1190.13   0.000659    3.33  0.000173  ( 0.009739 -0.008780  0.000902)
 63:   1217.57   0.000275    1.39  0.000070  ( 0.000279 -0.002921 -0.007862)
 64:   1221.72   0.005434   27.46  0.001388  (-0.008205 -0.014012 -0.033531)
 65:   1235.64   0.002062   10.42  0.000521  (-0.020026 -0.010805  0.001744)
 66:   1253.48   0.007252   36.65  0.001806  ( 0.030854  0.028885  0.004386)
 67:   1288.50   0.005843   29.53  0.001415  (-0.010001 -0.022531  0.028417)
 68:   1298.20   0.019636   99.23  0.004720  (-0.016549 -0.065147 -0.014220)
 69:   1331.11   0.000087    0.44  0.000020  (-0.003362  0.001935  0.002306)
 70:   1337.46   0.001286    6.50  0.000300  (-0.006989 -0.015728 -0.001938)
 71:   1340.24   0.001192    6.02  0.000277  (-0.013278 -0.009603 -0.002989)
 72:   1363.90   0.000396    2.00  0.000091  (-0.003252 -0.008086 -0.003827)
 73:   1377.01   0.000127    0.64  0.000029  (-0.002716  0.004585 -0.000527)
 74:   1410.29   0.006415   32.42  0.001420  (-0.036140 -0.003669  0.009996)
 75:   1421.05   0.005060   25.57  0.001111  (-0.023321 -0.021859 -0.009455)
 76:   1448.86   0.006218   31.42  0.001339  ( 0.018085 -0.017255  0.026731)
 77:   1457.62   0.001899    9.60  0.000407  (-0.006093 -0.016944 -0.009073)
 78:   1462.16   0.019863  100.38  0.004239  (-0.003872  0.057537 -0.030229)
 79:   1474.54   0.024132  121.95  0.005107  ( 0.053820  0.042550  0.020000)
 80:   1494.92   0.004733   23.92  0.000988  ( 0.030768  0.006365 -0.000845)
 81:   1501.10   0.001410    7.13  0.000293  (-0.004169 -0.002636  0.016398)
 82:   1515.41   0.001173    5.93  0.000242  ( 0.003949  0.002680  0.014789)
 83:   1518.64   0.002875   14.53  0.000591  (-0.001881 -0.023765 -0.004748)
 84:   1521.42   0.001029    5.20  0.000211  ( 0.009712  0.007299 -0.007972)
 85:   1525.37   0.000477    2.41  0.000098  ( 0.001137  0.009667  0.001678)
 86:   1534.15   0.005633   28.47  0.001146  ( 0.001817 -0.021859 -0.025782)
 87:   1538.11   0.004589   23.19  0.000931  (-0.029079  0.009221 -0.000724)
 88:   1542.43   0.016870   85.25  0.003413  ( 0.057506  0.005881  0.008460)
 89:   1544.99   0.000766    3.87  0.000155  (-0.002948  0.001712  0.011961)
 90:   1570.64   0.008418   42.54  0.001673  ( 0.001749 -0.023732  0.033262)
 91:   1632.45   0.000143    0.72  0.000027  (-0.001743  0.004880  0.000663)
 92:   1658.81   0.000699    3.53  0.000132  ( 0.010836  0.001888  0.003253)
 93:   1739.19   0.055770  281.84  0.010007  (-0.075250 -0.009408 -0.065236)
 94:   1747.51   0.079566  402.09  0.014209  (-0.117792 -0.009186 -0.015782)
 95:   3025.49   0.005298   26.77  0.000546  (-0.018779 -0.004727 -0.013093)
 96:   3033.79   0.015571   78.69  0.001602  ( 0.007319 -0.017856  0.035061)
 97:   3060.50   0.001786    9.03  0.000182  (-0.012570  0.000692 -0.004860)
 98:   3064.47   0.003283   16.59  0.000334  (-0.007923 -0.009825 -0.013227)
 99:   3073.40   0.009426   47.63  0.000957  ( 0.023604 -0.018859 -0.006651)
100:   3082.46   0.002236   11.30  0.000226  ( 0.007934 -0.010911 -0.006663)
101:   3084.04   0.006500   32.85  0.000658  (-0.018113  0.017762  0.003762)
102:   3085.03   0.005611   28.36  0.000568  ( 0.009131 -0.003135  0.021781)
103:   3116.37   0.001033    5.22  0.000103  ( 0.007123 -0.005971  0.004130)
104:   3123.91   0.002213   11.18  0.000221  ( 0.004235  0.004589 -0.013494)
105:   3136.01   0.004050   20.47  0.000403  ( 0.000107  0.019861  0.002924)
106:   3169.54   0.000357    1.81  0.000035  ( 0.001909 -0.005395  0.001560)
107:   3177.14   0.001684    8.51  0.000165  ( 0.011393  0.005489  0.002338)
108:   3181.58   0.002663   13.46  0.000261  ( 0.008042  0.011751  0.007645)
109:   3190.60   0.002246   11.35  0.000220  (-0.001791  0.014518 -0.002391)
110:   3191.15   0.000144    0.73  0.000014  ( 0.003562 -0.000848 -0.000840)
111:   3192.88   0.000192    0.97  0.000019  (-0.003909  0.001770 -0.000580)
112:   3222.64   0.001079    5.45  0.000104  (-0.001446  0.008744  0.005089)
113:   3223.49   0.000546    2.76  0.000053  ( 0.007274  0.000009  0.000008)

--------------------------
THERMOCHEMISTRY AT 298.15K
--------------------------

Temperature         ... 298.15 K
Pressure            ... 1.00 atm
Total Mass          ... 282.77 AMU

Throughout the following assumptions are being made:
  (1) The electronic state is orbitally nondegenerate
  (2) There are no thermally accessible electronically excited states
  (3) Hindered rotations indicated by low frequency modes are not
      treated as such but are treated as vibrations and this may
      cause some error
  (4) All equations used are the standard statistical mechanics
      equations for an ideal gas
  (5) All vibrations are strictly harmonic

freq.      22.28  E(vib)   ...       0.56
freq.      33.59  E(vib)   ...       0.55
freq.      41.70  E(vib)   ...       0.53
freq.      45.79  E(vib)   ...       0.53
freq.      70.49  E(vib)   ...       0.50
freq.      77.48  E(vib)   ...       0.49
freq.     102.34  E(vib)   ...       0.46
freq.     109.84  E(vib)   ...       0.45
freq.     122.79  E(vib)   ...       0.43
freq.     133.24  E(vib)   ...       0.42
freq.     150.62  E(vib)   ...       0.40
freq.     159.12  E(vib)   ...       0.39
freq.     165.62  E(vib)   ...       0.39
freq.     217.66  E(vib)   ...       0.33
freq.     245.94  E(vib)   ...       0.31
freq.     260.78  E(vib)   ...       0.30
freq.     281.70  E(vib)   ...       0.28
freq.     322.57  E(vib)   ...       0.25
freq.     340.17  E(vib)   ...       0.23
freq.     369.41  E(vib)   ...       0.21
freq.     380.44  E(vib)   ...       0.21
freq.     391.42  E(vib)   ...       0.20
freq.     421.87  E(vib)   ...       0.18
freq.     427.43  E(vib)   ...       0.18
freq.     434.19  E(vib)   ...       0.17
freq.     471.15  E(vib)   ...       0.15
freq.     485.13  E(vib)   ...       0.15
freq.     526.46  E(vib)   ...       0.13
freq.     581.56  E(vib)   ...       0.11
freq.     595.75  E(vib)   ...       0.10
freq.     620.44  E(vib)   ...       0.09
freq.     648.16  E(vib)   ...       0.08
freq.     670.99  E(vib)   ...       0.08
freq.     699.67  E(vib)   ...       0.07
freq.     727.65  E(vib)   ...       0.06
freq.     766.12  E(vib)   ...       0.06
freq.     787.06  E(vib)   ...       0.05
freq.     821.97  E(vib)   ...       0.05
freq.     829.53  E(vib)   ...       0.04
freq.     852.97  E(vib)   ...       0.04
freq.     870.85  E(vib)   ...       0.04
freq.     954.37  E(vib)   ...       0.03
freq.     962.03  E(vib)   ...       0.03
freq.     990.98  E(vib)   ...       0.02
freq.    1003.10  E(vib)   ...       0.02
freq.    1012.23  E(vib)   ...       0.02
freq.    1029.27  E(vib)   ...       0.02
freq.    1031.11  E(vib)   ...       0.02
freq.    1034.21  E(vib)   ...       0.02
freq.    1063.95  E(vib)   ...       0.02
freq.    1093.23  E(vib)   ...       0.02
freq.    1097.42  E(vib)   ...       0.02
freq.    1112.04  E(vib)   ...       0.01
freq.    1141.16  E(vib)   ...       0.01
freq.    1144.03  E(vib)   ...       0.01
freq.    1170.60  E(vib)   ...       0.01
freq.    1190.13  E(vib)   ...       0.01
freq.    1217.57  E(vib)   ...       0.01
freq.    1221.72  E(vib)   ...       0.01
freq.    1235.64  E(vib)   ...       0.01
freq.    1253.48  E(vib)   ...       0.01
freq.    1288.50  E(vib)   ...       0.01
freq.    1298.20  E(vib)   ...       0.01
freq.    1331.11  E(vib)   ...       0.01
freq.    1337.46  E(vib)   ...       0.01
freq.    1340.24  E(vib)   ...       0.01
freq.    1363.90  E(vib)   ...       0.01
freq.    1377.01  E(vib)   ...       0.01
freq.    1410.29  E(vib)   ...       0.00
freq.    1421.05  E(vib)   ...       0.00
freq.    1448.86  E(vib)   ...       0.00
freq.    1457.62  E(vib)   ...       0.00
freq.    1462.16  E(vib)   ...       0.00
freq.    1474.54  E(vib)   ...       0.00
freq.    1494.92  E(vib)   ...       0.00
freq.    1501.10  E(vib)   ...       0.00
freq.    1515.41  E(vib)   ...       0.00
freq.    1518.64  E(vib)   ...       0.00
freq.    1521.42  E(vib)   ...       0.00
freq.    1525.37  E(vib)   ...       0.00
freq.    1534.15  E(vib)   ...       0.00
freq.    1538.11  E(vib)   ...       0.00
freq.    1542.43  E(vib)   ...       0.00
freq.    1544.99  E(vib)   ...       0.00
freq.    1570.64  E(vib)   ...       0.00
freq.    1632.45  E(vib)   ...       0.00
freq.    1658.81  E(vib)   ...       0.00
freq.    1739.19  E(vib)   ...       0.00
freq.    1747.51  E(vib)   ...       0.00
freq.    3025.49  E(vib)   ...       0.00
freq.    3033.79  E(vib)   ...       0.00
freq.    3060.50  E(vib)   ...       0.00
freq.    3064.47  E(vib)   ...       0.00
freq.    3073.40  E(vib)   ...       0.00
freq.    3082.46  E(vib)   ...       0.00
freq.    3084.04  E(vib)   ...       0.00
freq.    3085.03  E(vib)   ...       0.00
freq.    3116.37  E(vib)   ...       0.00
freq.    3123.91  E(vib)   ...       0.00
freq.    3136.01  E(vib)   ...       0.00
freq.    3169.54  E(vib)   ...       0.00
freq.    3177.14  E(vib)   ...       0.00
freq.    3181.58  E(vib)   ...       0.00
freq.    3190.60  E(vib)   ...       0.00
freq.    3191.15  E(vib)   ...       0.00
freq.    3192.88  E(vib)   ...       0.00
freq.    3222.64  E(vib)   ...       0.00
freq.    3223.49  E(vib)   ...       0.00

------------
INNER ENERGY
------------

The inner energy is: U= E(el) + E(ZPE) + E(vib) + E(rot) + E(trans)
    E(el)   - is the total energy from the electronic structure calculation
              = E(kin-el) + E(nuc-el) + E(el-el) + E(nuc-nuc)
    E(ZPE)  - the the zero temperature vibrational energy from the frequency calculation
    E(vib)  - the the finite temperature correction to E(ZPE) due to population
              of excited vibrational states
    E(rot)  - is the rotational thermal energy
    E(trans)- is the translational thermal energy

Summary of contributions to the inner energy U:
Electronic energy                ...  -1264.60783129 Eh
Zero point energy                ...      0.31728671 Eh     199.10 kcal/mol
Thermal vibrational correction   ...      0.01705221 Eh      10.70 kcal/mol
Thermal rotational correction    ...      0.00141627 Eh       0.89 kcal/mol
Thermal translational correction ...      0.00141627 Eh       0.89 kcal/mol
-----------------------------------------------------------------------
Total thermal energy                  -1264.27065983 Eh

Summary of corrections to the electronic energy:
(perhaps to be used in another calculation)
Total thermal correction                  0.01988475 Eh      12.48 kcal/mol
Non-thermal (ZPE) correction              0.31728671 Eh     199.10 kcal/mol
-----------------------------------------------------------------------
Total correction                          0.33717146 Eh     211.58 kcal/mol

--------
ENTHALPY
--------

Rotational constants in cm-1:     0.019820     0.005250     0.004516

                             ****ORCA TERMINATED NORMALLY****
TOTAL RUN TIME: 0 days 0 hours 39 minutes 26 seconds 400 msec
