                         Program Version 5.0.4 -  RELEASE  -
|  1> ! OPT FREQ B3LYP 6-31+G(d) D4 AUTOAUX
|  2>
|  3> %PAL NPROCS 4 END
|  4>
|  5> %maxcore 3375
|  6>
|  7> *xyzfile 1 1 /users/fjb15167/WWenergy/structures/Nk.xyz
|  8>
|  9>                          ****END OF INPUT****
 Total Charge           Charge          ....    1
 Multiplicity           Mult            ....    1
 Number of Electrons    NEL             ....  118
Dispersion correction           -0.060484452
FINAL SINGLE POINT ENERGY      -708.461178001481
Dispersion correction            ... Starting D4
Dispersion correction           -0.060089921
FINAL SINGLE POINT ENERGY      -708.463194943312
Dispersion correction            ... Starting D4
Dispersion correction           -0.059405562
FINAL SINGLE POINT ENERGY      -708.462435517047
Dispersion correction            ... Starting D4
FINAL SINGLE POINT ENERGY      -708.462031590828
FINAL SINGLE POINT ENERGY      -708.463036958349
FINAL SINGLE POINT ENERGY      -708.463072262551
FINAL SINGLE POINT ENERGY      -708.463925539313
FINAL SINGLE POINT ENERGY      -708.463912603242
FINAL SINGLE POINT ENERGY      -708.464046954693
FINAL SINGLE POINT ENERGY      -708.464105899284
FINAL SINGLE POINT ENERGY      -708.464141205548
FINAL SINGLE POINT ENERGY      -708.464168761787
Dispersion correction           -0.060121202
FINAL SINGLE POINT ENERGY      -708.464178784369
Dispersion correction            ... Starting D4
Dispersion correction           -0.060109327
FINAL SINGLE POINT ENERGY      -708.464180373861
Dispersion correction            ... Starting D4
                    ***********************HURRAY********************

CARTESIAN COORDINATES (ANGSTROEM)
---------------------------------
  C      0.543754   -2.234506    2.184575
  H      1.600440   -2.212262    1.904016
  H      0.223428   -3.284547    2.184491
  H      0.426303   -1.846059    3.197620
  C     -0.346420   -1.424743    1.264726
  O     -1.258079   -0.724888    1.704856
  N     -0.126695   -1.487784   -0.096967
  C     -1.191576   -0.897870   -0.919028
  H     -0.870996   -0.935415   -1.964347
  H     -2.102613   -1.494891   -0.830130
  C      0.736435   -2.511089   -0.719957
  H      0.658199   -3.451987   -0.165120
  H      0.318766   -2.709451   -1.711532
  C      2.222173   -2.132222   -0.881927
  H      2.764751   -2.268483    0.061903
  H      2.661371   -2.854038   -1.580093
  C     -1.457608    0.578451   -0.617444
  N     -2.715014    0.984163   -0.410010
  O     -0.514668    1.407744   -0.697375
  C     -3.820807    0.063916   -0.100929
  H     -4.668943    0.660423    0.238070
  H     -4.136244   -0.498369   -0.986188
  H     -3.533333   -0.616867    0.703809
  C     -2.984721    2.414840   -0.230468
  H     -3.035397    2.659153    0.837917
  H     -2.190315    2.997677   -0.693584
  H     -3.941338    2.656420   -0.701099
  C      2.443971   -0.699261   -1.402195
  H      3.336453   -0.659763   -2.037461
  H      1.596672   -0.406456   -2.035943
  C      2.597140    0.307367   -0.253472
  H      2.005209    0.020350    0.616523
  H      3.640308    0.421608    0.054144
  N      2.063771    1.651786   -0.664165
  H      2.241668    2.370273    0.044150
  H      2.471779    1.976283   -1.545877
  H      0.994174    1.549500   -0.768489

 Multiplicity           Mult            ....    1
 Number of Electrons    NEL             ....  118
 Basis Dimension        Dim             ....  314

ORBITAL ENERGIES
----------------

  NO   OCC          E(Eh)            E(eV)
   0   2.0000     -19.254069      -523.9299
   1   2.0000     -19.237165      -523.4699
   2   2.0000     -14.571422      -396.5085
   3   2.0000     -14.491610      -394.3368
   4   2.0000     -14.489276      -394.2732
   5   2.0000     -10.420375      -283.5528
   6   2.0000     -10.406343      -283.1710
   7   2.0000     -10.382452      -282.5209
   8   2.0000     -10.351989      -281.6919
   9   2.0000     -10.347688      -281.5749
  10   2.0000     -10.331396      -281.1316
  11   2.0000     -10.318613      -280.7837
  12   2.0000     -10.317086      -280.7422
  13   2.0000     -10.313080      -280.6332
  14   2.0000     -10.295538      -280.1558
  15   2.0000      -1.172448       -31.9039
  16   2.0000      -1.157432       -31.4953
  17   2.0000      -1.130801       -30.7707
  18   2.0000      -1.058789       -28.8111
  19   2.0000      -1.057911       -28.7872
  20   2.0000      -0.941026       -25.6066
  21   2.0000      -0.891326       -24.2542
  22   2.0000      -0.869527       -23.6610
  23   2.0000      -0.842527       -22.9263
  24   2.0000      -0.830257       -22.5924
  25   2.0000      -0.804913       -21.9028
  26   2.0000      -0.793536       -21.5932
  27   2.0000      -0.749708       -20.4006
  28   2.0000      -0.726724       -19.7752
  29   2.0000      -0.706236       -19.2177
  30   2.0000      -0.677430       -18.4338
  31   2.0000      -0.649993       -17.6872
  32   2.0000      -0.644460       -17.5366
  33   2.0000      -0.639067       -17.3899
  34   2.0000      -0.625223       -17.0132
  35   2.0000      -0.605343       -16.4722
  36   2.0000      -0.596863       -16.2415
  37   2.0000      -0.591854       -16.1052
  38   2.0000      -0.582520       -15.8512
  39   2.0000      -0.570435       -15.5223
  40   2.0000      -0.560999       -15.2655
  41   2.0000      -0.548637       -14.9292
  42   2.0000      -0.539453       -14.6793
  43   2.0000      -0.530984       -14.4488
  44   2.0000      -0.523426       -14.2432
  45   2.0000      -0.520338       -14.1591
  46   2.0000      -0.516086       -14.0434
  47   2.0000      -0.515140       -14.0177
  48   2.0000      -0.510736       -13.8978
  49   2.0000      -0.497584       -13.5400
  50   2.0000      -0.490518       -13.3477
  51   2.0000      -0.488420       -13.2906
  52   2.0000      -0.484511       -13.1842
  53   2.0000      -0.474653       -12.9160
  54   2.0000      -0.465877       -12.6772
  55   2.0000      -0.404013       -10.9937
  56   2.0000      -0.382612       -10.4114
  57   2.0000      -0.369435       -10.0528
  58   2.0000      -0.366755        -9.9799
  59   0.0000      -0.142404        -3.8750
  60   0.0000      -0.124466        -3.3869
  61   0.0000      -0.113644        -3.0924
  62   0.0000      -0.103912        -2.8276
  63   0.0000      -0.098961        -2.6929

MULLIKEN ATOMIC CHARGES
-----------------------
   0 C :   -0.963587
   1 H :    0.214430
   2 H :    0.255974
   3 H :    0.263745
   4 C :    0.790240
   5 O :   -0.459038
   6 N :   -0.215511
   7 C :   -0.757945
   8 H :    0.231205
   9 H :    0.240671
  10 C :   -0.345096
  11 H :    0.229658
  12 H :    0.219455
  13 C :   -0.415155
  14 H :    0.213112
  15 H :    0.234357
  16 C :    0.530163
  17 N :    0.039107
  18 O :   -0.659106
  19 C :   -0.505339
  20 H :    0.227024
  21 H :    0.227647
  22 H :    0.270355
  23 C :   -0.526108
  24 H :    0.240144
  25 H :    0.244814
  26 H :    0.228718
  27 C :   -0.356588
  28 H :    0.233944
  29 H :    0.218196
  30 C :   -0.129864
  31 H :    0.262753
  32 H :    0.247754
  33 N :   -1.104220
  34 H :    0.482527
  35 H :    0.476307
  36 H :    0.615254
Sum of atomic charges:    1.0000000

LOEWDIN ATOMIC CHARGES
----------------------
   0 C :   -0.459155
   1 H :    0.210038
   2 H :    0.227057
   3 H :    0.229670
   4 C :    0.103322
   5 O :   -0.363925
   6 N :   -0.344450
   7 C :   -0.205929
   8 H :    0.236788
   9 H :    0.237813
  10 C :   -0.253805
  11 H :    0.225053
  12 H :    0.224307
  13 C :   -0.367525
  14 H :    0.210946
  15 H :    0.213333
  16 C :    0.131850
  17 N :   -0.288906
  18 O :   -0.503293
  19 C :   -0.356006
  20 H :    0.219250
  21 H :    0.210303
  22 H :    0.237067
  23 C :   -0.337345
  24 H :    0.217711
  25 H :    0.231556
  26 H :    0.209878
  27 C :   -0.366458
  28 H :    0.211775
  29 H :    0.221989
  30 C :   -0.257998
  31 H :    0.238160
  32 H :    0.218109
  33 N :   -0.453320
  34 H :    0.343385
  35 H :    0.343691
  36 H :    0.405065

  Mayer bond orders larger than 0.100000
B(  0-C ,  1-H ) :   0.9945 B(  0-C ,  2-H ) :   0.9146 B(  0-C ,  3-H ) :   0.9855
B(  0-C ,  4-C ) :   0.4533 B(  1-H ,  4-C ) :  -0.1188 B(  4-C ,  5-O ) :   1.7428
B(  4-C ,  6-N ) :   1.1381 B(  5-O ,  7-C ) :  -0.1212 B(  5-O , 16-C ) :   0.1306
B(  6-N ,  7-C ) :   0.8535 B(  6-N , 10-C ) :   0.7414 B(  7-C ,  8-H ) :   0.9855
B(  7-C ,  9-H ) :   1.0990 B(  7-C , 16-C ) :   0.6521 B(  7-C , 17-N ) :  -0.2958
B(  7-C , 18-O ) :  -0.2435 B(  9-H , 16-C ) :  -0.1384 B( 10-C , 11-H ) :   0.9808
B( 10-C , 12-H ) :   0.9923 B( 10-C , 13-C ) :   0.7217 B( 13-C , 14-H ) :   0.9958
B( 13-C , 15-H ) :   0.9756 B( 13-C , 27-C ) :   0.6800 B( 16-C , 17-N ) :   1.4591
B( 16-C , 18-O ) :   1.8613 B( 16-C , 33-N ) :  -0.1023 B( 17-N , 19-C ) :   0.7554
B( 17-N , 23-C ) :   0.8331 B( 18-O , 33-N ) :   0.1129 B( 18-O , 36-H ) :   0.2871
B( 19-C , 20-H ) :   0.9405 B( 19-C , 21-H ) :   0.9310 B( 19-C , 22-H ) :   0.9101
B( 23-C , 24-H ) :   0.9392 B( 23-C , 25-H ) :   0.9430 B( 23-C , 26-H ) :   0.9260
B( 27-C , 28-H ) :   0.9592 B( 27-C , 29-H ) :   0.9881 B( 27-C , 30-C ) :   0.7672
B( 27-C , 33-N ) :   0.1031 B( 30-C , 31-H ) :   0.9686 B( 30-C , 32-H ) :   0.9316
B( 30-C , 33-N ) :   0.5102 B( 33-N , 34-H ) :   0.7173 B( 33-N , 35-H ) :   0.7182
B( 33-N , 36-H ) :   0.3358

Dispersion correction           -0.060104416
FINAL SINGLE POINT ENERGY      -708.464182014035

DIPOLE MOMENT
-------------
                                X             Y             Z
Electronic contribution:     -3.35478       2.48868       1.16230
Nuclear contribution   :      5.55606      -1.73250      -2.39704
                        -----------------------------------------
Total Dipole Moment    :      2.20129       0.75619      -1.23473
                        -----------------------------------------
Magnitude (a.u.)       :      2.63478
Magnitude (Debye)      :      6.69707

Dispersion correction in the Hessian             ... Starting D4

VIBRATIONAL FREQUENCIES
-----------------------

Scaling factor for frequencies =  1.000000000  (already applied!)

   0:         0.00 cm**-1
   1:         0.00 cm**-1
   2:         0.00 cm**-1
   3:         0.00 cm**-1
   4:         0.00 cm**-1
   5:         0.00 cm**-1
   6:        42.64 cm**-1
   7:        50.06 cm**-1
   8:        69.67 cm**-1
   9:        77.92 cm**-1
  10:        91.68 cm**-1
  11:       101.68 cm**-1
  12:       111.53 cm**-1
  13:       122.38 cm**-1
  14:       134.13 cm**-1
  15:       145.37 cm**-1
  16:       158.14 cm**-1
  17:       203.04 cm**-1
  18:       230.71 cm**-1
  19:       270.54 cm**-1
  20:       280.06 cm**-1
  21:       295.90 cm**-1
  22:       311.63 cm**-1
  23:       320.87 cm**-1
  24:       366.57 cm**-1
  25:       388.56 cm**-1
  26:       418.91 cm**-1
  27:       437.45 cm**-1
  28:       460.55 cm**-1
  29:       480.40 cm**-1
  30:       504.39 cm**-1
  31:       598.09 cm**-1
  32:       602.48 cm**-1
  33:       622.19 cm**-1
  34:       675.05 cm**-1
  35:       733.46 cm**-1
  36:       777.82 cm**-1
  37:       828.82 cm**-1
  38:       859.79 cm**-1
  39:       879.75 cm**-1
  40:       924.48 cm**-1
  41:       960.29 cm**-1
  42:       988.71 cm**-1
  43:      1001.83 cm**-1
  44:      1007.64 cm**-1
  45:      1022.70 cm**-1
  46:      1038.53 cm**-1
  47:      1063.03 cm**-1
  48:      1085.42 cm**-1
  49:      1086.55 cm**-1
  50:      1104.61 cm**-1
  51:      1126.14 cm**-1
  52:      1143.95 cm**-1
  53:      1169.52 cm**-1
  54:      1176.06 cm**-1
  55:      1195.28 cm**-1
  56:      1223.64 cm**-1
  57:      1263.29 cm**-1
  58:      1281.76 cm**-1
  59:      1298.67 cm**-1
  60:      1314.99 cm**-1
  61:      1326.24 cm**-1
  62:      1356.47 cm**-1
  63:      1368.11 cm**-1
  64:      1378.22 cm**-1
  65:      1401.17 cm**-1
  66:      1411.13 cm**-1
  67:      1423.37 cm**-1
  68:      1439.80 cm**-1
  69:      1456.92 cm**-1
  70:      1457.32 cm**-1
  71:      1472.97 cm**-1
  72:      1489.77 cm**-1
  73:      1494.42 cm**-1
  74:      1503.63 cm**-1
  75:      1504.81 cm**-1
  76:      1514.27 cm**-1
  77:      1517.65 cm**-1
  78:      1523.71 cm**-1
  79:      1526.68 cm**-1
  80:      1528.01 cm**-1
  81:      1531.40 cm**-1
  82:      1536.66 cm**-1
  83:      1553.38 cm**-1
  84:      1592.38 cm**-1
  85:      1663.44 cm**-1
  86:      1695.59 cm**-1
  87:      1724.65 cm**-1
  88:      1733.38 cm**-1
  89:      2567.88 cm**-1
  90:      3050.10 cm**-1
  91:      3056.42 cm**-1
  92:      3057.86 cm**-1
  93:      3060.45 cm**-1
  94:      3066.69 cm**-1
  95:      3073.21 cm**-1
  96:      3088.22 cm**-1
  97:      3089.81 cm**-1
  98:      3096.55 cm**-1
  99:      3109.24 cm**-1
 100:      3117.89 cm**-1
 101:      3128.66 cm**-1
 102:      3130.82 cm**-1
 103:      3133.86 cm**-1
 104:      3144.32 cm**-1
 105:      3170.90 cm**-1
 106:      3171.53 cm**-1
 107:      3173.93 cm**-1
 108:      3195.88 cm**-1
 109:      3449.01 cm**-1
 110:      3517.45 cm**-1

IR SPECTRUM
-----------

 Mode   freq       eps      Int      T**2         TX        TY        TZ
       cm**-1   L/(mol*cm) km/mol    a.u.
----------------------------------------------------------------------------
  6:     42.64   0.001286    6.50  0.009410  ( 0.015621 -0.015387 -0.094497)
  7:     50.06   0.001790    9.04  0.011157  ( 0.044893  0.086395 -0.040960)
  8:     69.67   0.001010    5.10  0.004524  ( 0.005876  0.046106 -0.048623)
  9:     77.92   0.000933    4.72  0.003738  (-0.031086 -0.045783 -0.025992)
 10:     91.68   0.000273    1.38  0.000929  (-0.003902  0.028101 -0.011162)
 11:    101.68   0.000486    2.46  0.001492  ( 0.032727  0.008829  0.018518)
 12:    111.53   0.001042    5.27  0.002916  (-0.018385 -0.007963 -0.050147)
 13:    122.38   0.000219    1.11  0.000558  (-0.020256 -0.001333  0.012095)
 14:    134.13   0.000684    3.46  0.001592  (-0.010197  0.009309 -0.037440)
 15:    145.37   0.000071    0.36  0.000152  (-0.000997 -0.007689 -0.009606)
 16:    158.14   0.001043    5.27  0.002058  (-0.044320 -0.005466  0.007969)
 17:    203.04   0.001697    8.57  0.002608  ( 0.036064  0.025971 -0.025153)
 18:    230.71   0.008251   41.70  0.011161  (-0.101860 -0.025266  0.012120)
 19:    270.54   0.002101   10.62  0.002424  (-0.039658  0.006348 -0.028474)
 20:    280.06   0.001097    5.54  0.001222  (-0.034264 -0.001324 -0.006813)
 21:    295.90   0.000794    4.01  0.000838  ( 0.021833  0.018368  0.004855)
 22:    311.63   0.003372   17.04  0.003377  (-0.057593 -0.005116 -0.005816)
 23:    320.87   0.001874    9.47  0.001823  (-0.024438 -0.015816  0.031234)
 24:    366.57   0.001610    8.14  0.001371  ( 0.036812  0.003876  0.000799)
 25:    388.56   0.001390    7.03  0.001117  (-0.008189 -0.018344 -0.026704)
 26:    418.91   0.002955   14.93  0.002201  ( 0.034051 -0.031286  0.007919)
 27:    437.45   0.002486   12.56  0.001773  ( 0.030900 -0.028567 -0.001544)
 28:    460.55   0.002018   10.20  0.001367  (-0.033849 -0.012224  0.008501)
 29:    480.40   0.003340   16.88  0.002170  ( 0.044387  0.014032 -0.001626)
 30:    504.39   0.004538   22.93  0.002807  (-0.034338  0.010961 -0.038835)
 31:    598.09   0.003532   17.85  0.001843  ( 0.039380  0.000609 -0.017081)
 32:    602.48   0.000341    1.72  0.000177  ( 0.010921 -0.005513 -0.005183)
 33:    622.19   0.000752    3.80  0.000377  ( 0.001303 -0.018645 -0.005282)
 34:    675.05   0.007060   35.68  0.003264  (-0.056633  0.004738 -0.005821)
 35:    733.46   0.001719    8.69  0.000731  (-0.005290 -0.013926  0.022574)
 36:    777.82   0.003514   17.76  0.001410  ( 0.037534  0.000795  0.000583)
 37:    828.82   0.006393   32.31  0.002407  (-0.035757 -0.018615  0.027967)
 38:    859.79   0.001178    5.95  0.000428  (-0.018387 -0.001420 -0.009356)
 39:    879.75   0.000317    1.60  0.000112  (-0.002344 -0.002170 -0.010110)
 40:    924.48   0.000651    3.29  0.000220  ( 0.001543 -0.007862 -0.012477)
 41:    960.29   0.007312   36.95  0.002376  (-0.041866 -0.022584  0.010653)
 42:    988.71   0.001918    9.69  0.000605  (-0.024395  0.001195  0.002945)
 43:   1001.83   0.001032    5.22  0.000322  (-0.001843 -0.016257  0.007338)
 44:   1007.64   0.003716   18.78  0.001151  ( 0.009681 -0.020216 -0.025466)
 45:   1022.70   0.000498    2.52  0.000152  (-0.002268  0.006058 -0.010494)
 46:   1038.53   0.001088    5.50  0.000327  ( 0.006020  0.014991 -0.008113)
 47:   1063.03   0.000852    4.31  0.000250  (-0.005799 -0.013652  0.005483)
 48:   1085.42   0.000459    2.32  0.000132  (-0.004689 -0.006371  0.008333)
 49:   1086.55   0.003319   16.77  0.000953  ( 0.018840  0.024462 -0.000039)
 50:   1104.61   0.001743    8.81  0.000492  ( 0.013978  0.011222  0.013082)
 51:   1126.14   0.002116   10.69  0.000586  (-0.022038  0.009212 -0.003983)
 52:   1143.95   0.006554   33.12  0.001788  ( 0.037893 -0.018616  0.002359)
 53:   1169.52   0.002823   14.27  0.000753  ( 0.024652 -0.008063  0.008975)
 54:   1176.06   0.008587   43.39  0.002278  ( 0.036336 -0.024550  0.018855)
 55:   1195.28   0.005216   26.36  0.001362  (-0.026942  0.024580  0.005626)
 56:   1223.64   0.001086    5.49  0.000277  ( 0.012541 -0.002422 -0.010664)
 57:   1263.29   0.004837   24.44  0.001195  (-0.019191 -0.008977  0.027313)
 58:   1281.76   0.005062   25.58  0.001232  ( 0.025365 -0.024259  0.000678)
 59:   1298.67   0.000974    4.92  0.000234  (-0.001685  0.002552  0.014989)
 60:   1314.99   0.005552   28.06  0.001318  ( 0.003733  0.011869 -0.034100)
 61:   1326.24   0.005248   26.52  0.001235  (-0.001618 -0.007730 -0.034242)
 62:   1356.47   0.000861    4.35  0.000198  (-0.005222 -0.006981 -0.011051)
 63:   1368.11   0.011432   57.77  0.002608  (-0.004778  0.002478 -0.050781)
 64:   1378.22   0.000227    1.15  0.000051  (-0.004005  0.000230 -0.005937)
 65:   1401.17   0.005389   27.23  0.001200  ( 0.023068 -0.015366 -0.020783)
 66:   1411.13   0.001459    7.37  0.000323  (-0.014439  0.008780  0.006081)
 67:   1423.37   0.005703   28.82  0.001250  (-0.000761 -0.010469  0.033767)
 68:   1439.80   0.003618   18.28  0.000784  ( 0.026717 -0.008259  0.001444)
 69:   1456.92   0.011305   57.13  0.002421  (-0.021674  0.004162  0.043982)
 70:   1457.32   0.004320   21.83  0.000925  (-0.028867 -0.009196  0.002683)
 71:   1472.97   0.006032   30.48  0.001278  (-0.025550  0.013457 -0.021071)
 72:   1489.77   0.002307   11.66  0.000483  (-0.013837  0.010750  0.013274)
 73:   1494.42   0.016392   82.84  0.003423  (-0.027282 -0.049032  0.016564)
 74:   1503.63   0.001925    9.73  0.000400  (-0.000243  0.010661  0.016907)
 75:   1504.81   0.001793    9.06  0.000372  (-0.001014 -0.015355 -0.011623)
 76:   1514.27   0.003289   16.62  0.000678  ( 0.011218  0.005358  0.022872)
 77:   1517.65   0.000786    3.97  0.000162  (-0.012664 -0.000585 -0.000945)
 78:   1523.71   0.003388   17.12  0.000694  ( 0.026319 -0.000709 -0.000765)
 79:   1526.68   0.000966    4.88  0.000197  (-0.000411 -0.006524  0.012435)
 80:   1528.01   0.003079   15.56  0.000629  (-0.002287 -0.006738  0.024046)
 81:   1531.40   0.002032   10.27  0.000414  (-0.004375 -0.015756  0.012109)
 82:   1536.66   0.006493   32.81  0.001319  ( 0.013660  0.016980  0.029046)
 83:   1553.38   0.014099   71.25  0.002832  ( 0.013366  0.051240 -0.005305)
 84:   1592.38   0.040414  204.24  0.007920  (-0.066739 -0.053891  0.023702)
 85:   1663.44   0.093903  474.55  0.017616  ( 0.131620 -0.006055 -0.015994)
 86:   1695.59   0.031972  161.57  0.005884  ( 0.073016  0.023505 -0.000699)
 87:   1724.65   0.001777    8.98  0.000321  (-0.004975  0.015800 -0.006863)
 88:   1733.38   0.072084  364.28  0.012977  (-0.087028  0.048522  0.055218)
 89:   2567.88   0.408905  2066.44  0.049692  ( 0.221680  0.023286 -0.002842)
 90:   3050.10   0.001189    6.01  0.000122  (-0.000614 -0.004980  0.009823)
 91:   3056.42   0.003017   15.25  0.000308  ( 0.007899 -0.009261  0.012643)
 92:   3057.86   0.004750   24.01  0.000485  ( 0.004799 -0.019512 -0.009001)
 93:   3060.45   0.001311    6.62  0.000134  (-0.009661  0.005614 -0.002970)
 94:   3066.69   0.003591   18.15  0.000365  ( 0.018157  0.005771  0.001547)
 95:   3073.21   0.002794   14.12  0.000284  (-0.000842  0.016821 -0.000297)
 96:   3088.22   0.001132    5.72  0.000114  (-0.001785  0.004641  0.009468)
 97:   3089.81   0.003944   19.93  0.000398  ( 0.017481  0.007827  0.005614)
 98:   3096.55   0.004629   23.39  0.000467  ( 0.008554 -0.014891 -0.013100)
 99:   3109.24   0.001947    9.84  0.000195  (-0.011554  0.000207 -0.007865)
100:   3117.89   0.003840   19.41  0.000384  (-0.007763  0.003396 -0.017679)
101:   3128.66   0.002937   14.84  0.000293  (-0.016892 -0.001462 -0.002341)
102:   3130.82   0.002734   13.82  0.000273  ( 0.007317 -0.005004  0.013927)
103:   3133.86   0.001999   10.10  0.000199  ( 0.012284  0.006012 -0.003461)
104:   3144.32   0.001018    5.14  0.000101  (-0.004606  0.005833  0.006767)
105:   3170.90   0.001126    5.69  0.000111  (-0.008828 -0.000875  0.005663)
106:   3171.53   0.000658    3.32  0.000065  (-0.005165  0.006109  0.000843)
107:   3173.93   0.000583    2.95  0.000057  (-0.006251  0.000499  0.004241)
108:   3195.88   0.000481    2.43  0.000047  ( 0.003130  0.005431 -0.002779)
109:   3449.01   0.012126   61.28  0.001097  ( 0.022007  0.024585 -0.002905)
110:   3517.45   0.010488   53.00  0.000931  (-0.003508  0.007801  0.029281)

--------------------------
THERMOCHEMISTRY AT 298.15K
--------------------------

Temperature         ... 298.15 K
Pressure            ... 1.00 atm
Total Mass          ... 216.31 AMU

Throughout the following assumptions are being made:
  (1) The electronic state is orbitally nondegenerate
  (2) There are no thermally accessible electronically excited states
  (3) Hindered rotations indicated by low frequency modes are not
      treated as such but are treated as vibrations and this may
      cause some error
  (4) All equations used are the standard statistical mechanics
      equations for an ideal gas
  (5) All vibrations are strictly harmonic

freq.      42.64  E(vib)   ...       0.53
freq.      50.06  E(vib)   ...       0.52
freq.      69.67  E(vib)   ...       0.50
freq.      77.92  E(vib)   ...       0.49
freq.      91.68  E(vib)   ...       0.47
freq.     101.68  E(vib)   ...       0.46
freq.     111.53  E(vib)   ...       0.45
freq.     122.38  E(vib)   ...       0.43
freq.     134.13  E(vib)   ...       0.42
freq.     145.37  E(vib)   ...       0.41
freq.     158.14  E(vib)   ...       0.39
freq.     203.04  E(vib)   ...       0.35
freq.     230.71  E(vib)   ...       0.32
freq.     270.54  E(vib)   ...       0.29
freq.     280.06  E(vib)   ...       0.28
freq.     295.90  E(vib)   ...       0.27
freq.     311.63  E(vib)   ...       0.25
freq.     320.87  E(vib)   ...       0.25
freq.     366.57  E(vib)   ...       0.22
freq.     388.56  E(vib)   ...       0.20
freq.     418.91  E(vib)   ...       0.18
freq.     437.45  E(vib)   ...       0.17
freq.     460.55  E(vib)   ...       0.16
freq.     480.40  E(vib)   ...       0.15
freq.     504.39  E(vib)   ...       0.14
freq.     598.09  E(vib)   ...       0.10
freq.     602.48  E(vib)   ...       0.10
freq.     622.19  E(vib)   ...       0.09
freq.     675.05  E(vib)   ...       0.08
freq.     733.46  E(vib)   ...       0.06
freq.     777.82  E(vib)   ...       0.05
freq.     828.82  E(vib)   ...       0.04
freq.     859.79  E(vib)   ...       0.04
freq.     879.75  E(vib)   ...       0.04
freq.     924.48  E(vib)   ...       0.03
freq.     960.29  E(vib)   ...       0.03
freq.     988.71  E(vib)   ...       0.02
freq.    1001.83  E(vib)   ...       0.02
freq.    1007.64  E(vib)   ...       0.02
freq.    1022.70  E(vib)   ...       0.02
freq.    1038.53  E(vib)   ...       0.02
freq.    1063.03  E(vib)   ...       0.02
freq.    1085.42  E(vib)   ...       0.02
freq.    1086.55  E(vib)   ...       0.02
freq.    1104.61  E(vib)   ...       0.02
freq.    1126.14  E(vib)   ...       0.01
freq.    1143.95  E(vib)   ...       0.01
freq.    1169.52  E(vib)   ...       0.01
freq.    1176.06  E(vib)   ...       0.01
freq.    1195.28  E(vib)   ...       0.01
freq.    1223.64  E(vib)   ...       0.01
freq.    1263.29  E(vib)   ...       0.01
freq.    1281.76  E(vib)   ...       0.01
freq.    1298.67  E(vib)   ...       0.01
freq.    1314.99  E(vib)   ...       0.01
freq.    1326.24  E(vib)   ...       0.01
freq.    1356.47  E(vib)   ...       0.01
freq.    1368.11  E(vib)   ...       0.01
freq.    1378.22  E(vib)   ...       0.01
freq.    1401.17  E(vib)   ...       0.00
freq.    1411.13  E(vib)   ...       0.00
freq.    1423.37  E(vib)   ...       0.00
freq.    1439.80  E(vib)   ...       0.00
freq.    1456.92  E(vib)   ...       0.00
freq.    1457.32  E(vib)   ...       0.00
freq.    1472.97  E(vib)   ...       0.00
freq.    1489.77  E(vib)   ...       0.00
freq.    1494.42  E(vib)   ...       0.00
freq.    1503.63  E(vib)   ...       0.00
freq.    1504.81  E(vib)   ...       0.00
freq.    1514.27  E(vib)   ...       0.00
freq.    1517.65  E(vib)   ...       0.00
freq.    1523.71  E(vib)   ...       0.00
freq.    1526.68  E(vib)   ...       0.00
freq.    1528.01  E(vib)   ...       0.00
freq.    1531.40  E(vib)   ...       0.00
freq.    1536.66  E(vib)   ...       0.00
freq.    1553.38  E(vib)   ...       0.00
freq.    1592.38  E(vib)   ...       0.00
freq.    1663.44  E(vib)   ...       0.00
freq.    1695.59  E(vib)   ...       0.00
freq.    1724.65  E(vib)   ...       0.00
freq.    1733.38  E(vib)   ...       0.00
freq.    2567.88  E(vib)   ...       0.00
freq.    3050.10  E(vib)   ...       0.00
freq.    3056.42  E(vib)   ...       0.00
freq.    3057.86  E(vib)   ...       0.00
freq.    3060.45  E(vib)   ...       0.00
freq.    3066.69  E(vib)   ...       0.00
freq.    3073.21  E(vib)   ...       0.00
freq.    3088.22  E(vib)   ...       0.00
freq.    3089.81  E(vib)   ...       0.00
freq.    3096.55  E(vib)   ...       0.00
freq.    3109.24  E(vib)   ...       0.00
freq.    3117.89  E(vib)   ...       0.00
freq.    3128.66  E(vib)   ...       0.00
freq.    3130.82  E(vib)   ...       0.00
freq.    3133.86  E(vib)   ...       0.00
freq.    3144.32  E(vib)   ...       0.00
freq.    3170.90  E(vib)   ...       0.00
freq.    3171.53  E(vib)   ...       0.00
freq.    3173.93  E(vib)   ...       0.00
freq.    3195.88  E(vib)   ...       0.00
freq.    3449.01  E(vib)   ...       0.00
freq.    3517.45  E(vib)   ...       0.00

------------
INNER ENERGY
------------

The inner energy is: U= E(el) + E(ZPE) + E(vib) + E(rot) + E(trans)
    E(el)   - is the total energy from the electronic structure calculation
              = E(kin-el) + E(nuc-el) + E(el-el) + E(nuc-nuc)
    E(ZPE)  - the the zero temperature vibrational energy from the frequency calculation
    E(vib)  - the the finite temperature correction to E(ZPE) due to population
              of excited vibrational states
    E(rot)  - is the rotational thermal energy
    E(trans)- is the translational thermal energy

Summary of contributions to the inner energy U:
Electronic energy                ...   -708.46418201 Eh
Zero point energy                ...      0.33467543 Eh     210.01 kcal/mol
Thermal vibrational correction   ...      0.01489107 Eh       9.34 kcal/mol
Thermal rotational correction    ...      0.00141627 Eh       0.89 kcal/mol
Thermal translational correction ...      0.00141627 Eh       0.89 kcal/mol
-----------------------------------------------------------------------
Total thermal energy                   -708.11178297 Eh

Summary of corrections to the electronic energy:
(perhaps to be used in another calculation)
Total thermal correction                  0.01772361 Eh      11.12 kcal/mol
Non-thermal (ZPE) correction              0.33467543 Eh     210.01 kcal/mol
-----------------------------------------------------------------------
Total correction                          0.35239904 Eh     221.13 kcal/mol

--------
ENTHALPY
--------

The enthalpy is H = U + kB*T
                kB is Boltzmann's constant
Total free energy                 ...   -708.11178297 Eh

Rotational constants in cm-1:     0.026361     0.014667     0.011676

                             ****ORCA TERMINATED NORMALLY****
TOTAL RUN TIME: 0 days 0 hours 59 minutes 18 seconds 126 msec
