                         Program Version 5.0.4 -  RELEASE  -
|  1> ! OPT FREQ B3LYP 6-31G(d) D4 AUTOAUX
|  2>
|  3> %PAL NPROCS 4 END
|  4>
|  5> %maxcore 3375
|  6>
|  7> *xyzfile 0 1 /users/fjb15167/WWenergy/structures/Nt.xyz
|  8>
|  9>                          ****END OF INPUT****
 Total Charge           Charge          ....    0
 Multiplicity           Mult            ....    1
 Number of Electrons    NEL             ....  102
Dispersion correction           -0.046660892
FINAL SINGLE POINT ENERGY      -649.326314018304
Dispersion correction            ... Starting D4
Dispersion correction           -0.046517781
FINAL SINGLE POINT ENERGY      -649.326757123332
Dispersion correction            ... Starting D4
Dispersion correction           -0.046483295
FINAL SINGLE POINT ENERGY      -649.326788140001
Dispersion correction            ... Starting D4
FINAL SINGLE POINT ENERGY      -649.326860691826
FINAL SINGLE POINT ENERGY      -649.326876761454
FINAL SINGLE POINT ENERGY      -649.326897388509
Dispersion correction           -0.046439780
FINAL SINGLE POINT ENERGY      -649.326904071956
Dispersion correction            ... Starting D4
Dispersion correction           -0.046438698
FINAL SINGLE POINT ENERGY      -649.326908534406
Dispersion correction            ... Starting D4
                    ***********************HURRAY********************

CARTESIAN COORDINATES (ANGSTROEM)
---------------------------------
  C      2.686535    1.508619   -0.785200
  H      3.434680    0.953703   -0.218716
  H      2.905219    2.578615   -0.754085
  H      2.717914    1.196960   -1.835917
  C      1.281433    1.324361   -0.244057
  O      0.437224    2.205179   -0.380721
  N      0.967070    0.160049    0.435103
  C     -0.389494    0.099774    0.944009
  H     -0.419220   -0.572238    1.810091
  H     -0.663665    1.100851    1.276198
  C      1.786351   -1.042024    0.515044
  H      1.159923   -1.770105    1.047833
  C      2.158798   -1.661735   -0.833170
  H      1.246591   -1.821749   -1.411384
  H      2.840447   -1.024280   -1.401173
  C     -1.374891   -0.406892   -0.125418
  N     -2.705005   -0.187771    0.108943
  O     -0.968515   -1.011992   -1.113810
  C     -3.208608    0.637426    1.198015
  H     -4.232090    0.325095    1.429348
  H     -2.614183    0.508174    2.104461
  H     -3.224749    1.705216    0.935697
  C     -3.668121   -0.559379   -0.918974
  H     -4.071582    0.331838   -1.419876
  H     -3.160429   -1.182191   -1.654319
  H     -4.500942   -1.115520   -0.471381
  O      2.932626   -0.739560    1.313122
  H      3.587738   -1.437891    1.155638
  H      2.651945   -2.629533   -0.671300

 Multiplicity           Mult            ....    1
 Number of Electrons    NEL             ....  102
 Basis Dimension        Dim             ....  214

ORBITAL ENERGIES
----------------

  NO   OCC          E(Eh)            E(eV)
   0   2.0000     -19.142469      -520.8931
   1   2.0000     -19.102391      -519.8025
   2   2.0000     -19.094249      -519.5809
   3   2.0000     -14.356865      -390.6701
   4   2.0000     -14.346676      -390.3929
   5   2.0000     -10.274818      -279.5920
   6   2.0000     -10.269945      -279.4594
   7   2.0000     -10.267743      -279.3995
   8   2.0000     -10.216075      -277.9935
   9   2.0000     -10.213551      -277.9249
  10   2.0000     -10.200860      -277.5795
  11   2.0000     -10.164805      -276.5984
  12   2.0000     -10.162671      -276.5403
  13   2.0000      -1.035591       -28.1799
  14   2.0000      -1.025285       -27.8994
  15   2.0000      -1.013383       -27.5755
  16   2.0000      -0.929295       -25.2874
  17   2.0000      -0.914694       -24.8901
  18   2.0000      -0.758134       -20.6299
  19   2.0000      -0.736608       -20.0441
  20   2.0000      -0.723930       -19.6991
  21   2.0000      -0.707581       -19.2543
  22   2.0000      -0.668687       -18.1959
  23   2.0000      -0.643724       -17.5166
  24   2.0000      -0.554589       -15.0911
  25   2.0000      -0.523195       -14.2369
  26   2.0000      -0.510287       -13.8856
  27   2.0000      -0.504508       -13.7283
  28   2.0000      -0.489360       -13.3162
  29   2.0000      -0.472508       -12.8576
  30   2.0000      -0.465318       -12.6619
  31   2.0000      -0.458101       -12.4656
  32   2.0000      -0.431183       -11.7331
  33   2.0000      -0.425680       -11.5834
  34   2.0000      -0.418855       -11.3976
  35   2.0000      -0.406437       -11.0597
  36   2.0000      -0.405321       -11.0293
  37   2.0000      -0.402482       -10.9521
  38   2.0000      -0.395402       -10.7594
  39   2.0000      -0.387571       -10.5463
  40   2.0000      -0.376212       -10.2372
  41   2.0000      -0.372740       -10.1428
  42   2.0000      -0.371593       -10.1116
  43   2.0000      -0.351264        -9.5584
  44   2.0000      -0.340953        -9.2778
  45   2.0000      -0.331703        -9.0261
  46   2.0000      -0.276488        -7.5236
  47   2.0000      -0.250399        -6.8137
  48   2.0000      -0.240051        -6.5321
  49   2.0000      -0.235205        -6.4002
  50   2.0000      -0.229475        -6.2443
  51   0.0000       0.029927         0.8144
  52   0.0000       0.031987         0.8704
  53   0.0000       0.074439         2.0256
  54   0.0000       0.089550         2.4368
  55   0.0000       0.108490         2.9522

MULLIKEN ATOMIC CHARGES
-----------------------
   0 C :   -0.552149
   1 H :    0.179831
   2 H :    0.177743
   3 H :    0.175295
   4 C :    0.543909
   5 O :   -0.478493
   6 N :   -0.372508
   7 C :   -0.274113
   8 H :    0.168235
   9 H :    0.196270
  10 C :    0.273557
  11 H :    0.127755
  12 C :   -0.501757
  13 H :    0.210812
  14 H :    0.156061
  15 C :    0.555595
  16 N :   -0.378716
  17 O :   -0.477162
  18 C :   -0.321748
  19 H :    0.160129
  20 H :    0.170225
  21 H :    0.174063
  22 C :   -0.322111
  23 H :    0.157361
  24 H :    0.202427
  25 H :    0.148152
  26 O :   -0.627653
  27 H :    0.398363
  28 H :    0.130623
Sum of atomic charges:   -0.0000000

LOEWDIN ATOMIC CHARGES
----------------------
   0 C :   -0.397207
   1 H :    0.143567
   2 H :    0.150362
   3 H :    0.147373
   4 C :    0.129005
   5 O :   -0.279834
   6 N :   -0.067935
   7 C :   -0.188854
   8 H :    0.139418
   9 H :    0.155385
  10 C :    0.044414
  11 H :    0.114939
  12 C :   -0.396066
  13 H :    0.160752
  14 H :    0.131598
  15 C :    0.107120
  16 N :   -0.090687
  17 O :   -0.282669
  18 C :   -0.274693
  19 H :    0.132573
  20 H :    0.135379
  21 H :    0.130693
  22 C :   -0.276919
  23 H :    0.124845
  24 H :    0.156478
  25 H :    0.122630
  26 O :   -0.404671
  27 H :    0.312135
  28 H :    0.120870

  Mayer bond orders larger than 0.100000
B(  0-C ,  1-H ) :   0.9092 B(  0-C ,  2-H ) :   0.9385 B(  0-C ,  3-H ) :   0.9287
B(  0-C ,  4-C ) :   0.9880 B(  4-C ,  5-O ) :   1.8339 B(  4-C ,  6-N ) :   1.0962
B(  6-N ,  7-C ) :   0.9960 B(  6-N , 10-C ) :   0.9600 B(  7-C ,  8-H ) :   0.9155
B(  7-C ,  9-H ) :   0.8984 B(  7-C , 15-C ) :   0.9037 B( 10-C , 11-H ) :   0.9238
B( 10-C , 12-C ) :   1.0037 B( 10-C , 26-O ) :   0.9383 B( 12-C , 13-H ) :   0.9065
B( 12-C , 14-H ) :   0.9363 B( 12-C , 28-H ) :   0.9401 B( 15-C , 16-N ) :   1.1296
B( 15-C , 17-O ) :   1.8221 B( 16-N , 18-C ) :   0.9632 B( 16-N , 22-C ) :   0.9563
B( 18-C , 19-H ) :   0.9407 B( 18-C , 20-H ) :   0.9363 B( 18-C , 21-H ) :   0.9293
B( 22-C , 23-H ) :   0.9400 B( 22-C , 24-H ) :   0.9201 B( 22-C , 25-H ) :   0.9420
B( 26-O , 27-H ) :   0.7790

Dispersion correction           -0.046434947
FINAL SINGLE POINT ENERGY      -649.326912679958

DIPOLE MOMENT
-------------
                                X             Y             Z
Electronic contribution:      2.09165       1.93011       0.92127
Nuclear contribution   :     -2.40942      -2.89376      -0.20487
                        -----------------------------------------
Total Dipole Moment    :     -0.31777      -0.96365       0.71640
                        -----------------------------------------
Magnitude (a.u.)       :      1.24211
Magnitude (Debye)      :      3.15718

Dispersion correction in the Hessian             ... Starting D4

VIBRATIONAL FREQUENCIES
-----------------------

Scaling factor for frequencies =  1.000000000  (already applied!)

   0:         0.00 cm**-1
   1:         0.00 cm**-1
   2:         0.00 cm**-1
   3:         0.00 cm**-1
   4:         0.00 cm**-1
   5:         0.00 cm**-1
   6:       -13.35 cm**-1 ***imaginary mode***
   7:        31.49 cm**-1
   8:        78.79 cm**-1
   9:        93.06 cm**-1
  10:        99.09 cm**-1
  11:       117.24 cm**-1
  12:       122.73 cm**-1
  13:       135.34 cm**-1
  14:       188.13 cm**-1
  15:       214.92 cm**-1
  16:       225.19 cm**-1
  17:       240.96 cm**-1
  18:       255.53 cm**-1
  19:       274.47 cm**-1
  20:       295.83 cm**-1
  21:       356.18 cm**-1
  22:       384.29 cm**-1
  23:       402.85 cm**-1
  24:       450.08 cm**-1
  25:       453.93 cm**-1
  26:       497.08 cm**-1
  27:       537.16 cm**-1
  28:       571.97 cm**-1
  29:       614.98 cm**-1
  30:       630.82 cm**-1
  31:       690.32 cm**-1
  32:       735.03 cm**-1
  33:       829.41 cm**-1
  34:       901.17 cm**-1
  35:       956.40 cm**-1
  36:       982.26 cm**-1
  37:      1022.59 cm**-1
  38:      1036.13 cm**-1
  39:      1077.11 cm**-1
  40:      1090.96 cm**-1
  41:      1094.09 cm**-1
  42:      1135.09 cm**-1
  43:      1137.47 cm**-1
  44:      1161.11 cm**-1
  45:      1170.62 cm**-1
  46:      1183.50 cm**-1
  47:      1222.60 cm**-1
  48:      1299.19 cm**-1
  49:      1305.37 cm**-1
  50:      1319.99 cm**-1
  51:      1378.17 cm**-1
  52:      1386.99 cm**-1
  53:      1405.25 cm**-1
  54:      1422.48 cm**-1
  55:      1431.42 cm**-1
  56:      1449.67 cm**-1
  57:      1458.41 cm**-1
  58:      1472.40 cm**-1
  59:      1497.96 cm**-1
  60:      1503.24 cm**-1
  61:      1512.55 cm**-1
  62:      1523.75 cm**-1
  63:      1525.73 cm**-1
  64:      1528.45 cm**-1
  65:      1531.68 cm**-1
  66:      1535.21 cm**-1
  67:      1545.43 cm**-1
  68:      1559.24 cm**-1
  69:      1758.00 cm**-1
  70:      1766.05 cm**-1
  71:      3026.65 cm**-1
  72:      3026.86 cm**-1
  73:      3033.41 cm**-1
  74:      3049.97 cm**-1
  75:      3066.87 cm**-1
  76:      3067.39 cm**-1
  77:      3084.21 cm**-1
  78:      3103.34 cm**-1
  79:      3134.99 cm**-1
  80:      3140.54 cm**-1
  81:      3147.01 cm**-1
  82:      3161.76 cm**-1
  83:      3178.53 cm**-1
  84:      3184.95 cm**-1
  85:      3190.77 cm**-1
  86:      3738.24 cm**-1

IR SPECTRUM
-----------

 Mode   freq       eps      Int      T**2         TX        TY        TZ
       cm**-1   L/(mol*cm) km/mol    a.u.
----------------------------------------------------------------------------
  7:     31.49   0.000376    1.90  0.003731  ( 0.010823 -0.044790  0.040098)
  8:     78.79   0.000901    4.55  0.003569  (-0.026876 -0.025923 -0.046631)
  9:     93.06   0.000161    0.81  0.000540  (-0.004869  0.016053 -0.016066)
 10:     99.09   0.000042    0.21  0.000131  (-0.011370  0.001095  0.000630)
 11:    117.24   0.000629    3.18  0.001675  (-0.035230  0.020839 -0.000231)
 12:    122.73   0.001057    5.34  0.002688  (-0.042447 -0.000957 -0.029756)
 13:    135.34   0.000160    0.81  0.000368  (-0.016519 -0.006544 -0.007246)
 14:    188.13   0.001388    7.02  0.002303  (-0.017039 -0.022421  0.038861)
 15:    214.92   0.000500    2.53  0.000726  (-0.018832 -0.016050  0.010649)
 16:    225.19   0.000109    0.55  0.000152  (-0.008189 -0.008229 -0.004092)
 17:    240.96   0.009901   50.03  0.012822  (-0.022374 -0.061836  0.092184)
 18:    255.53   0.009601   48.52  0.011725  ( 0.046209  0.047332 -0.085727)
 19:    274.47   0.000491    2.48  0.000558  ( 0.004015 -0.013261  0.019143)
 20:    295.83   0.000088    0.45  0.000093  ( 0.003351 -0.009057 -0.000110)
 21:    356.18   0.001715    8.67  0.001503  ( 0.033602  0.019319 -0.000761)
 22:    384.29   0.001205    6.09  0.000978  ( 0.014313 -0.020890  0.018358)
 23:    402.85   0.001739    8.79  0.001347  ( 0.033993  0.013096  0.004519)
 24:    450.08   0.000646    3.26  0.000448  (-0.016983 -0.011440  0.005330)
 25:    453.93   0.000800    4.04  0.000550  ( 0.014643  0.015076  0.010414)
 26:    497.08   0.003837   19.39  0.002409  ( 0.039717  0.010119 -0.027000)
 27:    537.16   0.002562   12.95  0.001488  (-0.017204 -0.026464  0.022180)
 28:    571.97   0.001123    5.68  0.000613  ( 0.023775  0.002544 -0.006405)
 29:    614.98   0.000635    3.21  0.000322  (-0.001225  0.014623  0.010347)
 30:    630.82   0.004050   20.47  0.002004  (-0.039961  0.005816 -0.019315)
 31:    690.32   0.004895   24.74  0.002213  ( 0.044621 -0.013871  0.005432)
 32:    735.03   0.000161    0.82  0.000068  (-0.007436 -0.002235 -0.002864)
 33:    829.41   0.002026   10.24  0.000762  ( 0.014015 -0.016846 -0.016796)
 34:    901.17   0.002352   11.88  0.000814  (-0.022815 -0.003815 -0.016710)
 35:    956.40   0.006349   32.08  0.002072  (-0.019368  0.020773 -0.035566)
 36:    982.26   0.001032    5.21  0.000328  (-0.011955 -0.009371  0.009852)
 37:   1022.59   0.002169   10.96  0.000662  ( 0.017904 -0.015454  0.010128)
 38:   1036.13   0.003359   16.97  0.001012  ( 0.009954 -0.029765  0.005157)
 39:   1077.11   0.001130    5.71  0.000327  ( 0.005023 -0.000989  0.017355)
 40:   1090.96   0.001902    9.61  0.000544  (-0.006639  0.016828  0.014728)
 41:   1094.09   0.000349    1.76  0.000100  ( 0.004029 -0.000825 -0.009090)
 42:   1135.09   0.000444    2.24  0.000122  (-0.006623  0.006636  0.005847)
 43:   1137.47   0.025447  128.60  0.006981  (-0.067462  0.010142 -0.048243)
 44:   1161.11   0.019740   99.76  0.005305  (-0.071465  0.011833 -0.007626)
 45:   1170.62   0.018875   95.38  0.005032  (-0.070359  0.004674  0.007703)
 46:   1183.50   0.003602   18.20  0.000950  ( 0.027723 -0.004334  0.012744)
 47:   1222.60   0.006377   32.23  0.001628  (-0.024274  0.026664 -0.018095)
 48:   1299.19   0.005698   28.80  0.001369  ( 0.034077  0.010127  0.010239)
 49:   1305.37   0.010377   52.44  0.002481  (-0.021449 -0.012152 -0.043279)
 50:   1319.99   0.030769  155.49  0.007274  ( 0.058199  0.056103 -0.027193)
 51:   1378.17   0.007514   37.97  0.001701  (-0.038113 -0.001295 -0.015718)
 52:   1386.99   0.011710   59.18  0.002635  ( 0.026449 -0.042239 -0.012289)
 53:   1405.25   0.010003   50.55  0.002221  (-0.027300 -0.038343  0.002411)
 54:   1422.48   0.017624   89.06  0.003866  ( 0.033659  0.044060 -0.028145)
 55:   1431.42   0.013019   65.79  0.002838  (-0.009984  0.050217  0.014730)
 56:   1449.67   0.006524   32.97  0.001404  ( 0.033982 -0.014784 -0.005572)
 57:   1458.41   0.007476   37.78  0.001600  ( 0.036234  0.001566  0.016865)
 58:   1472.40   0.005135   25.95  0.001088  ( 0.028226 -0.017020  0.001367)
 59:   1497.96   0.003523   17.81  0.000734  (-0.017733 -0.015469 -0.013425)
 60:   1503.24   0.003984   20.13  0.000827  ( 0.015416  0.006736 -0.023323)
 61:   1512.55   0.008552   43.22  0.001764  ( 0.028082  0.015403 -0.027178)
 62:   1523.75   0.002423   12.25  0.000496  (-0.011313 -0.018468 -0.005215)
 63:   1525.73   0.000675    3.41  0.000138  ( 0.009570 -0.005780 -0.003621)
 64:   1528.45   0.002083   10.53  0.000425  (-0.014068 -0.002201 -0.014920)
 65:   1531.68   0.004263   21.54  0.000869  ( 0.018523  0.015786 -0.016621)
 66:   1535.21   0.002182   11.03  0.000444  ( 0.016306 -0.008489 -0.010274)
 67:   1545.43   0.003711   18.75  0.000749  (-0.017723 -0.013252  0.016113)
 68:   1559.24   0.009710   49.07  0.001943  ( 0.043620 -0.004113 -0.004877)
 69:   1758.00   0.070104  354.28  0.012444  ( 0.069189 -0.087383 -0.004608)
 70:   1766.05   0.035603  179.92  0.006291  ( 0.051415 -0.014211 -0.058699)
 71:   3026.65   0.006486   32.78  0.000669  ( 0.019104  0.007977 -0.015497)
 72:   3026.86   0.007821   39.52  0.000806  (-0.014413 -0.019668 -0.014552)
 73:   3033.41   0.013708   69.28  0.001410  ( 0.032500 -0.018340  0.004198)
 74:   3049.97   0.007447   37.64  0.000762  (-0.016959  0.021663  0.002255)
 75:   3066.87   0.004329   21.88  0.000440  (-0.012215 -0.005281  0.016229)
 76:   3067.39   0.001961    9.91  0.000200  (-0.007419 -0.009344  0.007562)
 77:   3084.21   0.007854   39.69  0.000795  (-0.013689 -0.021032  0.012842)
 78:   3103.34   0.005137   25.96  0.000517  ( 0.015499  0.010658 -0.012760)
 79:   3134.99   0.005312   26.85  0.000529  (-0.008870 -0.019435  0.008508)
 80:   3140.54   0.001097    5.54  0.000109  ( 0.003618  0.005666  0.007990)
 81:   3147.01   0.003839   19.40  0.000381  ( 0.017325 -0.003838  0.008114)
 82:   3161.76   0.001040    5.25  0.000103  ( 0.000955  0.001925  0.009900)
 83:   3178.53   0.000660    3.34  0.000065  ( 0.002494  0.005886 -0.004894)
 84:   3184.95   0.000497    2.51  0.000049  ( 0.005887 -0.003742  0.000033)
 85:   3190.77   0.000265    1.34  0.000026  (-0.001491 -0.002489 -0.004181)
 86:   3738.24   0.002730   13.79  0.000228  ( 0.013306 -0.006923  0.001698)

--------------------------
THERMOCHEMISTRY AT 298.15K
--------------------------

Temperature         ... 298.15 K
Pressure            ... 1.00 atm
Total Mass          ... 188.23 AMU

Throughout the following assumptions are being made:
  (1) The electronic state is orbitally nondegenerate
  (2) There are no thermally accessible electronically excited states
  (3) Hindered rotations indicated by low frequency modes are not
      treated as such but are treated as vibrations and this may
      cause some error
  (4) All equations used are the standard statistical mechanics
      equations for an ideal gas
  (5) All vibrations are strictly harmonic

freq.      31.49  E(vib)   ...       0.55
freq.      78.79  E(vib)   ...       0.49
freq.      93.06  E(vib)   ...       0.47
freq.      99.09  E(vib)   ...       0.46
freq.     117.24  E(vib)   ...       0.44
freq.     122.73  E(vib)   ...       0.43
freq.     135.34  E(vib)   ...       0.42
freq.     188.13  E(vib)   ...       0.36
freq.     214.92  E(vib)   ...       0.34
freq.     225.19  E(vib)   ...       0.33
freq.     240.96  E(vib)   ...       0.31
freq.     255.53  E(vib)   ...       0.30
freq.     274.47  E(vib)   ...       0.28
freq.     295.83  E(vib)   ...       0.27
freq.     356.18  E(vib)   ...       0.22
freq.     384.29  E(vib)   ...       0.20
freq.     402.85  E(vib)   ...       0.19
freq.     450.08  E(vib)   ...       0.17
freq.     453.93  E(vib)   ...       0.16
freq.     497.08  E(vib)   ...       0.14
freq.     537.16  E(vib)   ...       0.12
freq.     571.97  E(vib)   ...       0.11
freq.     614.98  E(vib)   ...       0.10
freq.     630.82  E(vib)   ...       0.09
freq.     690.32  E(vib)   ...       0.07
freq.     735.03  E(vib)   ...       0.06
freq.     829.41  E(vib)   ...       0.04
freq.     901.17  E(vib)   ...       0.03
freq.     956.40  E(vib)   ...       0.03
freq.     982.26  E(vib)   ...       0.02
freq.    1022.59  E(vib)   ...       0.02
freq.    1036.13  E(vib)   ...       0.02
freq.    1077.11  E(vib)   ...       0.02
freq.    1090.96  E(vib)   ...       0.02
freq.    1094.09  E(vib)   ...       0.02
freq.    1135.09  E(vib)   ...       0.01
freq.    1137.47  E(vib)   ...       0.01
freq.    1161.11  E(vib)   ...       0.01
freq.    1170.62  E(vib)   ...       0.01
freq.    1183.50  E(vib)   ...       0.01
freq.    1222.60  E(vib)   ...       0.01
freq.    1299.19  E(vib)   ...       0.01
freq.    1305.37  E(vib)   ...       0.01
freq.    1319.99  E(vib)   ...       0.01
freq.    1378.17  E(vib)   ...       0.01
freq.    1386.99  E(vib)   ...       0.00
freq.    1405.25  E(vib)   ...       0.00
freq.    1422.48  E(vib)   ...       0.00
freq.    1431.42  E(vib)   ...       0.00
freq.    1449.67  E(vib)   ...       0.00
freq.    1458.41  E(vib)   ...       0.00
freq.    1472.40  E(vib)   ...       0.00
freq.    1497.96  E(vib)   ...       0.00
freq.    1503.24  E(vib)   ...       0.00
freq.    1512.55  E(vib)   ...       0.00
freq.    1523.75  E(vib)   ...       0.00
freq.    1525.73  E(vib)   ...       0.00
freq.    1528.45  E(vib)   ...       0.00
freq.    1531.68  E(vib)   ...       0.00
freq.    1535.21  E(vib)   ...       0.00
freq.    1545.43  E(vib)   ...       0.00
freq.    1559.24  E(vib)   ...       0.00
freq.    1758.00  E(vib)   ...       0.00
freq.    1766.05  E(vib)   ...       0.00
freq.    3026.65  E(vib)   ...       0.00
freq.    3026.86  E(vib)   ...       0.00
freq.    3033.41  E(vib)   ...       0.00
freq.    3049.97  E(vib)   ...       0.00
freq.    3066.87  E(vib)   ...       0.00
freq.    3067.39  E(vib)   ...       0.00
freq.    3084.21  E(vib)   ...       0.00
freq.    3103.34  E(vib)   ...       0.00
freq.    3134.99  E(vib)   ...       0.00
freq.    3140.54  E(vib)   ...       0.00
freq.    3147.01  E(vib)   ...       0.00
freq.    3161.76  E(vib)   ...       0.00
freq.    3178.53  E(vib)   ...       0.00
freq.    3184.95  E(vib)   ...       0.00
freq.    3190.77  E(vib)   ...       0.00
freq.    3738.24  E(vib)   ...       0.00

------------
INNER ENERGY
------------

The inner energy is: U= E(el) + E(ZPE) + E(vib) + E(rot) + E(trans)
    E(el)   - is the total energy from the electronic structure calculation
              = E(kin-el) + E(nuc-el) + E(el-el) + E(nuc-nuc)
    E(ZPE)  - the the zero temperature vibrational energy from the frequency calculation
    E(vib)  - the the finite temperature correction to E(ZPE) due to population
              of excited vibrational states
    E(rot)  - is the rotational thermal energy
    E(trans)- is the translational thermal energy

Summary of contributions to the inner energy U:
Electronic energy                ...   -649.32691268 Eh
Zero point energy                ...      0.24866216 Eh     156.04 kcal/mol
Thermal vibrational correction   ...      0.01191727 Eh       7.48 kcal/mol
Thermal rotational correction    ...      0.00141627 Eh       0.89 kcal/mol
Thermal translational correction ...      0.00141627 Eh       0.89 kcal/mol
-----------------------------------------------------------------------
Total thermal energy                   -649.06350070 Eh

Summary of corrections to the electronic energy:
(perhaps to be used in another calculation)
Total thermal correction                  0.01474981 Eh       9.26 kcal/mol
Non-thermal (ZPE) correction              0.24866216 Eh     156.04 kcal/mol
-----------------------------------------------------------------------
Total correction                          0.26341198 Eh     165.29 kcal/mol

--------
ENTHALPY
--------

The enthalpy is H = U + kB*T
                kB is Boltzmann's constant
Total free energy                 ...   -649.06350070 Eh
Thermal Enthalpy correction       ...      0.00094421 Eh       0.59 kcal/mol
-----------------------------------------------------------------------
Total Enthalpy                    ...   -649.06255649 Eh

Note: Only C1 symmetry has been detected, increase convergence thresholds
      if your molecule has a higher symmetry. Symmetry factor of 1.0 is
      used for the rotational entropy correction.

Note: Rotational entropy computed according to Herzberg
Infrared and Raman Spectra, Chapter V,1, Van Nostrand Reinhold, 1945
Point Group:  C1, Symmetry Number:   1
Rotational constants in cm-1:     0.044284     0.015862     0.014448

Vibrational entropy computed according to the QRRHO of S. Grimme
Chem.Eur.J. 2012 18 9955

-------
ENTROPY
-------

The entropy contributions are T*S = T*(S(el)+S(vib)+S(rot)+S(trans))
     S(el)   - electronic entropy

                             ****ORCA TERMINATED NORMALLY****
TOTAL RUN TIME: 0 days 0 hours 15 minutes 4 seconds 429 msec
