                         Program Version 5.0.4 -  RELEASE  -
|  1> ! OPT FREQ B3LYP 6-31G(d) D4 AUTOAUX CPCM(water)
|  2>
|  3> %PAL NPROCS 4 END
|  4>
|  5> %maxcore 3375
|  6>
|  7> *xyzfile 0 1 /users/fjb15167/WWenergy/structures/Nfn.xyz
|  8>
|  9>                          ****END OF INPUT****
 Total Charge           Charge          ....    0
 Multiplicity           Mult            ....    1
 Number of Electrons    NEL             ....  118
Dispersion correction           -0.060625108
FINAL SINGLE POINT ENERGY      -726.510370290295
Dispersion correction            ... Starting D4
Dispersion correction           -0.060048870
FINAL SINGLE POINT ENERGY      -726.511180739001
Dispersion correction            ... Starting D4
Dispersion correction           -0.060022394
FINAL SINGLE POINT ENERGY      -726.511399317075
Dispersion correction            ... Starting D4
FINAL SINGLE POINT ENERGY      -726.511504355309
FINAL SINGLE POINT ENERGY      -726.511556182347
FINAL SINGLE POINT ENERGY      -726.511604854942
FINAL SINGLE POINT ENERGY      -726.511668188427
FINAL SINGLE POINT ENERGY      -726.511673618265
FINAL SINGLE POINT ENERGY      -726.511796379741
FINAL SINGLE POINT ENERGY      -726.512077023954
FINAL SINGLE POINT ENERGY      -726.512467330517
FINAL SINGLE POINT ENERGY      -726.512535102635
FINAL SINGLE POINT ENERGY      -726.512594113862
FINAL SINGLE POINT ENERGY      -726.512646166865
FINAL SINGLE POINT ENERGY      -726.512688692601
FINAL SINGLE POINT ENERGY      -726.512724826976
FINAL SINGLE POINT ENERGY      -726.512754984979
Dispersion correction           -0.059422483
FINAL SINGLE POINT ENERGY      -726.512766328384
Dispersion correction            ... Starting D4
Dispersion correction           -0.059418162
FINAL SINGLE POINT ENERGY      -726.512772392734
Dispersion correction            ... Starting D4
                    ***********************HURRAY********************

CARTESIAN COORDINATES (ANGSTROEM)
---------------------------------
  C      1.298547    2.418286   -1.589575
  H      2.078875    2.845526   -0.951119
  H      0.955507    3.181605   -2.290410
  H      1.744975    1.585006   -2.141712
  C      0.107891    1.960969   -0.769876
  N      0.288440    0.882733    0.058432
  C      1.517623    0.152070    0.152493
  C      2.598297    0.699096    0.851030
  C      1.621898   -1.117810   -0.425193
  C      3.791792   -0.017247    0.955304
  H      2.495858    1.678102    1.310094
  C      2.812901   -1.835641   -0.305085
  H      0.770062   -1.518598   -0.964340
  C      3.900581   -1.286007    0.379699
  H      4.631703    0.411769    1.495068
  H      2.893556   -2.822115   -0.753915
  H      4.828075   -1.845486    0.466943
  C     -0.885673    0.375235    0.749377
  H     -0.552891   -0.305366    1.538218
  H     -1.404896    1.212221    1.222248
  C     -1.838934   -0.363388   -0.209825
  N     -3.062649   -0.682736    0.283487
  O     -1.481481   -0.649709   -1.358298
  O     -0.987190    2.526997   -0.834657
  C     -3.525290   -0.332809    1.623620
  H     -4.073613    0.618900    1.623447
  H     -4.199893   -1.119678    1.974638
  H     -2.696059   -0.267046    2.328218
  C     -4.059924   -1.294515   -0.588404
  H     -4.401022   -2.245285   -0.162100
  H     -4.926554   -0.629929   -0.696027
  H     -3.613511   -1.470152   -1.565781

 Multiplicity           Mult            ....    1
 Number of Electrons    NEL             ....  118
 Basis Dimension        Dim             ....  256

ORBITAL ENERGIES
----------------

  NO   OCC          E(Eh)            E(eV)
   0   2.0000     -19.108563      -519.9704
   1   2.0000     -19.107718      -519.9475
   2   2.0000     -14.358644      -390.7186
   3   2.0000     -14.358290      -390.7089
   4   2.0000     -10.281891      -279.7845
   5   2.0000     -10.280103      -279.7358
   6   2.0000     -10.221554      -278.1426
   7   2.0000     -10.215980      -277.9909
   8   2.0000     -10.203490      -277.6511
   9   2.0000     -10.196117      -277.4504
  10   2.0000     -10.183965      -277.1198
  11   2.0000     -10.183515      -277.1075
  12   2.0000     -10.183291      -277.1014
  13   2.0000     -10.182470      -277.0791
  14   2.0000     -10.180916      -277.0368
  15   2.0000     -10.170393      -276.7505
  16   2.0000      -1.035673       -28.1821
  17   2.0000      -1.023279       -27.8448
  18   2.0000      -0.938153       -25.5284
  19   2.0000      -0.928816       -25.2744
  20   2.0000      -0.845743       -23.0138
  21   2.0000      -0.761478       -20.7209
  22   2.0000      -0.744857       -20.2686
  23   2.0000      -0.739640       -20.1266
  24   2.0000      -0.719595       -19.5812
  25   2.0000      -0.705571       -19.1996
  26   2.0000      -0.669410       -18.2156
  27   2.0000      -0.618856       -16.8399
  28   2.0000      -0.606241       -16.4966
  29   2.0000      -0.559123       -15.2145
  30   2.0000      -0.537180       -14.6174
  31   2.0000      -0.509878       -13.8745
  32   2.0000      -0.500206       -13.6113
  33   2.0000      -0.488551       -13.2942
  34   2.0000      -0.475028       -12.9262
  35   2.0000      -0.467039       -12.7088
  36   2.0000      -0.457568       -12.4511
  37   2.0000      -0.450494       -12.2586
  38   2.0000      -0.438669       -11.9368
  39   2.0000      -0.430101       -11.7037
  40   2.0000      -0.418497       -11.3879
  41   2.0000      -0.414188       -11.2706
  42   2.0000      -0.401971       -10.9382
  43   2.0000      -0.397964       -10.8291
  44   2.0000      -0.396711       -10.7951
  45   2.0000      -0.394716       -10.7408
  46   2.0000      -0.387318       -10.5395
  47   2.0000      -0.374160       -10.1814
  48   2.0000      -0.365246        -9.9388
  49   2.0000      -0.362552        -9.8655
  50   2.0000      -0.353921        -9.6307
  51   2.0000      -0.343544        -9.3483
  52   2.0000      -0.340283        -9.2596
  53   2.0000      -0.268380        -7.3030
  54   2.0000      -0.255873        -6.9627
  55   2.0000      -0.252025        -6.8579
  56   2.0000      -0.248797        -6.7701
  57   2.0000      -0.237433        -6.4609
  58   2.0000      -0.231820        -6.3081
  59   0.0000      -0.007382        -0.2009
  60   0.0000      -0.003111        -0.0846
  61   0.0000       0.026352         0.7171
  62   0.0000       0.032582         0.8866
  63   0.0000       0.098315         2.6753

MULLIKEN ATOMIC CHARGES
-----------------------
   0 C :   -0.556175
   1 H :    0.194977
   2 H :    0.177336
   3 H :    0.188383
   4 C :    0.524598
   5 N :   -0.429358
   6 C :    0.204571
   7 C :   -0.150440
   8 C :   -0.152029
   9 C :   -0.163245
  10 H :    0.161847
  11 C :   -0.163073
  12 H :    0.163190
  13 C :   -0.136805
  14 H :    0.158724
  15 H :    0.158017
  16 H :    0.155827
  17 C :   -0.272382
  18 H :    0.207919
  19 H :    0.199545
  20 C :    0.557889
  21 N :   -0.374349
  22 O :   -0.537958
  23 O :   -0.536282
  24 C :   -0.337653
  25 H :    0.179012
  26 H :    0.183098
  27 H :    0.194943
  28 C :   -0.333051
  29 H :    0.174084
  30 H :    0.173473
  31 H :    0.185368
Sum of atomic charges:   -0.0000000

LOEWDIN ATOMIC CHARGES
----------------------
   0 C :   -0.393557
   1 H :    0.157717
   2 H :    0.147880
   3 H :    0.154164
   4 C :    0.122828
   5 N :   -0.045220
   6 C :    0.013854
   7 C :   -0.135570
   8 C :   -0.140209
   9 C :   -0.132503
  10 H :    0.147636
  11 C :   -0.131970
  12 H :    0.149464
  13 C :   -0.133685
  14 H :    0.144613
  15 H :    0.143941
  16 H :    0.143442
  17 C :   -0.184393
  18 H :    0.162173
  19 H :    0.156754
  20 C :    0.105269
  21 N :   -0.073627
  22 O :   -0.336799
  23 O :   -0.332245
  24 C :   -0.277037
  25 H :    0.135534
  26 H :    0.144171
  27 H :    0.148033
  28 C :   -0.278802
  29 H :    0.135629
  30 H :    0.134810
  31 H :    0.147705

  Mayer bond orders larger than 0.100000
B(  0-C ,  1-H ) :   0.9214 B(  0-C ,  2-H ) :   0.9390 B(  0-C ,  3-H ) :   0.9237
B(  0-C ,  4-C ) :   1.0004 B(  4-C ,  5-N ) :   1.1411 B(  4-C , 23-O ) :   1.8020
B(  5-N ,  6-C ) :   0.8934 B(  5-N , 17-C ) :   0.9611 B(  6-C ,  7-C ) :   1.4299
B(  6-C ,  8-C ) :   1.4384 B(  7-C ,  9-C ) :   1.4295 B(  7-C , 10-H ) :   0.9169
B(  8-C , 11-C ) :   1.4212 B(  8-C , 12-H ) :   0.8966 B(  9-C , 13-C ) :   1.4480
B(  9-C , 14-H ) :   0.9233 B( 11-C , 13-C ) :   1.4458 B( 11-C , 15-H ) :   0.9245
B( 13-C , 16-H ) :   0.9263 B( 17-C , 18-H ) :   0.9071 B( 17-C , 19-H ) :   0.9042
B( 17-C , 20-C ) :   0.9133 B( 20-C , 21-N ) :   1.1902 B( 20-C , 22-O ) :   1.7408
B( 21-N , 24-C ) :   0.9504 B( 21-N , 28-C ) :   0.9463 B( 24-C , 25-H ) :   0.9301
B( 24-C , 26-H ) :   0.9342 B( 24-C , 27-H ) :   0.9274 B( 28-C , 29-H ) :   0.9367
B( 28-C , 30-H ) :   0.9371 B( 28-C , 31-H ) :   0.9254

Dispersion correction           -0.059415188
FINAL SINGLE POINT ENERGY      -726.512772889400

DIPOLE MOMENT
-------------
                                X             Y             Z
Electronic contribution:      5.77871       1.26542      -1.45108
Nuclear contribution   :     -5.47652      -2.28842       3.47909
                        -----------------------------------------
Total Dipole Moment    :      0.30219      -1.02301       2.02801
                        -----------------------------------------
Magnitude (a.u.)       :      2.29144
Magnitude (Debye)      :      5.82437

Dispersion correction in the Hessian             ... Starting D4

VIBRATIONAL FREQUENCIES
-----------------------

Scaling factor for frequencies =  1.000000000  (already applied!)

   0:         0.00 cm**-1
   1:         0.00 cm**-1
   2:         0.00 cm**-1
   3:         0.00 cm**-1
   4:         0.00 cm**-1
   5:         0.00 cm**-1
   6:        24.91 cm**-1
   7:        32.70 cm**-1
   8:        61.35 cm**-1
   9:        71.18 cm**-1
  10:        84.27 cm**-1
  11:        96.89 cm**-1
  12:       106.45 cm**-1
  13:       114.37 cm**-1
  14:       136.02 cm**-1
  15:       138.02 cm**-1
  16:       222.82 cm**-1
  17:       229.54 cm**-1
  18:       248.92 cm**-1
  19:       275.51 cm**-1
  20:       336.99 cm**-1
  21:       388.40 cm**-1
  22:       404.28 cm**-1
  23:       424.92 cm**-1
  24:       443.64 cm**-1
  25:       449.75 cm**-1
  26:       505.82 cm**-1
  27:       553.32 cm**-1
  28:       588.17 cm**-1
  29:       593.21 cm**-1
  30:       620.91 cm**-1
  31:       635.48 cm**-1
  32:       662.99 cm**-1
  33:       716.37 cm**-1
  34:       747.08 cm**-1
  35:       793.57 cm**-1
  36:       822.61 cm**-1
  37:       865.41 cm**-1
  38:       923.83 cm**-1
  39:       945.33 cm**-1
  40:       972.17 cm**-1
  41:       984.96 cm**-1
  42:      1007.97 cm**-1
  43:      1009.35 cm**-1
  44:      1018.95 cm**-1
  45:      1041.99 cm**-1
  46:      1061.28 cm**-1
  47:      1064.04 cm**-1
  48:      1088.94 cm**-1
  49:      1102.21 cm**-1
  50:      1131.93 cm**-1
  51:      1140.27 cm**-1
  52:      1171.82 cm**-1
  53:      1181.88 cm**-1
  54:      1182.82 cm**-1
  55:      1195.81 cm**-1
  56:      1266.81 cm**-1
  57:      1288.97 cm**-1
  58:      1329.74 cm**-1
  59:      1354.81 cm**-1
  60:      1359.57 cm**-1
  61:      1383.09 cm**-1
  62:      1408.91 cm**-1
  63:      1434.01 cm**-1
  64:      1442.60 cm**-1
  65:      1455.05 cm**-1
  66:      1480.45 cm**-1
  67:      1483.69 cm**-1
  68:      1489.45 cm**-1
  69:      1492.76 cm**-1
  70:      1498.11 cm**-1
  71:      1508.07 cm**-1
  72:      1512.84 cm**-1
  73:      1522.94 cm**-1
  74:      1542.52 cm**-1
  75:      1551.96 cm**-1
  76:      1639.97 cm**-1
  77:      1653.47 cm**-1
  78:      1713.76 cm**-1
  79:      1726.34 cm**-1
  80:      3040.65 cm**-1
  81:      3046.64 cm**-1
  82:      3069.22 cm**-1
  83:      3091.83 cm**-1
  84:      3098.31 cm**-1
  85:      3114.13 cm**-1
  86:      3134.52 cm**-1
  87:      3142.75 cm**-1
  88:      3167.17 cm**-1
  89:      3174.25 cm**-1
  90:      3190.90 cm**-1
  91:      3193.96 cm**-1
  92:      3199.09 cm**-1
  93:      3208.24 cm**-1
  94:      3216.38 cm**-1
  95:      3226.09 cm**-1

IR SPECTRUM
-----------

 Mode   freq       eps      Int      T**2         TX        TY        TZ
       cm**-1   L/(mol*cm) km/mol    a.u.
----------------------------------------------------------------------------
  6:     24.91   0.000470    2.37  0.005883  ( 0.011564 -0.064091  0.040523)
  7:     32.70   0.000531    2.69  0.005071  ( 0.003295  0.070474 -0.009659)
  8:     61.35   0.000861    4.35  0.004380  (-0.047297  0.035796 -0.029348)
  9:     71.18   0.000845    4.27  0.003706  ( 0.038268  0.023615  0.041040)
 10:     84.27   0.000655    3.31  0.002424  ( 0.019762  0.040557  0.019721)
 11:     96.89   0.000671    3.39  0.002162  (-0.005874  0.045522  0.007419)
 12:    106.45   0.000641    3.24  0.001880  (-0.011416  0.012168  0.040023)
 13:    114.37   0.000769    3.89  0.002098  (-0.036199 -0.023528 -0.015311)
 14:    136.02   0.000184    0.93  0.000422  (-0.009751 -0.009750 -0.015237)
 15:    138.02   0.000815    4.12  0.001844  ( 0.033820 -0.020044  0.017267)
 16:    222.82   0.000664    3.36  0.000930  ( 0.003673 -0.028362  0.010608)
 17:    229.54   0.000775    3.92  0.001054  ( 0.000901  0.030552 -0.010934)
 18:    248.92   0.000146    0.74  0.000182  ( 0.001604 -0.012296  0.005358)
 19:    275.51   0.001763    8.91  0.001997  (-0.013202 -0.033267  0.026759)
 20:    336.99   0.000597    3.02  0.000553  (-0.016922  0.008956 -0.013647)
 21:    388.40   0.006484   32.77  0.005210  (-0.062244 -0.036547 -0.000115)
 22:    404.28   0.002806   14.18  0.002166  (-0.011771  0.037613 -0.024744)
 23:    424.92   0.000050    0.25  0.000037  ( 0.005489 -0.002443 -0.000838)
 24:    443.64   0.000073    0.37  0.000051  ( 0.005379  0.000663 -0.004656)
 25:    449.75   0.001086    5.49  0.000753  (-0.018549 -0.016528 -0.011660)
 26:    505.82   0.002099   10.61  0.001295  (-0.018931 -0.016884  0.025527)
 27:    553.32   0.005008   25.31  0.002824  (-0.008411 -0.038960  0.035154)
 28:    588.17   0.008239   41.64  0.004371  ( 0.049299  0.017379 -0.040483)
 29:    593.21   0.000579    2.93  0.000305  (-0.000801  0.011735  0.012899)
 30:    620.91   0.002990   15.11  0.001503  ( 0.030481  0.004956  0.023437)
 31:    635.48   0.000811    4.10  0.000398  (-0.013828  0.004583 -0.013636)
 32:    662.99   0.000906    4.58  0.000427  (-0.010420  0.015393  0.009000)
 33:    716.37   0.009569   48.36  0.004169  ( 0.026810  0.025172 -0.053067)
 34:    747.08   0.002087   10.55  0.000872  ( 0.008504  0.014808 -0.024087)
 35:    793.57   0.004251   21.48  0.001672  (-0.004057 -0.007981  0.039893)
 36:    822.61   0.004518   22.83  0.001714  ( 0.012459 -0.008549 -0.038543)
 37:    865.41   0.000065    0.33  0.000024  ( 0.002520 -0.003798  0.001654)
 38:    923.83   0.001779    8.99  0.000601  (-0.013707  0.016014 -0.012514)
 39:    945.33   0.000472    2.39  0.000156  (-0.001545 -0.003141  0.011985)
 40:    972.17   0.000432    2.18  0.000139  (-0.007383 -0.008855  0.002385)
 41:    984.96   0.000012    0.06  0.000004  (-0.000604 -0.001083  0.001460)
 42:   1007.97   0.001472    7.44  0.000456  ( 0.016269 -0.013435  0.003235)
 43:   1009.35   0.006457   32.63  0.001996  ( 0.028524 -0.030929  0.015040)
 44:   1018.95   0.000260    1.31  0.000079  ( 0.007695 -0.004259 -0.001460)
 45:   1041.99   0.006264   31.65  0.001876  ( 0.022037 -0.031607  0.019781)
 46:   1061.28   0.003162   15.98  0.000930  (-0.013652 -0.025367 -0.009996)
 47:   1064.04   0.002231   11.27  0.000654  (-0.013862  0.000946  0.021475)
 48:   1088.94   0.003127   15.80  0.000896  ( 0.011161 -0.011169 -0.025432)
 49:   1102.21   0.002740   13.85  0.000776  ( 0.013078 -0.011767 -0.021593)
 50:   1131.93   0.002527   12.77  0.000697  (-0.020869 -0.003007  0.015874)
 51:   1140.27   0.010754   54.35  0.002943  (-0.048859 -0.021001  0.010721)
 52:   1171.82   0.025648  129.62  0.006830  (-0.075639 -0.024576  0.022472)
 53:   1181.88   0.009375   47.38  0.002475  ( 0.047800  0.013711  0.001579)
 54:   1182.82   0.000342    1.73  0.000090  ( 0.008246  0.004697 -0.000314)
 55:   1195.81   0.000133    0.67  0.000035  (-0.005063  0.002857 -0.000935)
 56:   1266.81   0.013930   70.40  0.003432  (-0.043835  0.035696 -0.015357)
 57:   1288.97   0.013897   70.23  0.003365  (-0.048202 -0.029868 -0.012209)
 58:   1329.74   0.013187   66.64  0.003095  ( 0.003954 -0.041983  0.036283)
 59:   1354.81   0.023896  120.76  0.005504  ( 0.020995  0.060122 -0.038061)
 60:   1359.57   0.007711   38.97  0.001770  ( 0.021667  0.022474 -0.028200)
 61:   1383.09   0.011017   55.67  0.002486  (-0.045125  0.006654  0.020129)
 62:   1408.91   0.004154   20.99  0.000920  ( 0.025499 -0.016422  0.000334)
 63:   1434.01   0.053431  270.02  0.011627  ( 0.004858  0.093247 -0.053933)
 64:   1442.60   0.010603   53.59  0.002294  (-0.045935  0.007090  0.011553)
 65:   1455.05   0.012911   65.25  0.002769  ( 0.044662  0.001076  0.027806)
 66:   1480.45   0.013391   67.67  0.002823  (-0.018150 -0.030497  0.039538)
 67:   1483.69   0.007623   38.52  0.001603  ( 0.038870  0.002587 -0.009261)
 68:   1489.45   0.004310   21.78  0.000903  ( 0.000747 -0.007695 -0.029038)
 69:   1492.76   0.000872    4.41  0.000182  (-0.000994 -0.006518 -0.011782)
 70:   1498.11   0.005148   26.02  0.001072  ( 0.003066  0.000339 -0.032601)
 71:   1508.07   0.002825   14.28  0.000585  ( 0.019006  0.002981  0.014645)
 72:   1512.84   0.003254   16.44  0.000671  (-0.006396 -0.024998 -0.002312)
 73:   1522.94   0.001558    7.87  0.000319  (-0.001503  0.014909 -0.009735)
 74:   1542.52   0.021804  110.19  0.004411  (-0.055193  0.036284 -0.006947)
 75:   1551.96   0.017838   90.15  0.003587  (-0.057436 -0.016839  0.002090)
 76:   1639.97   0.001983   10.02  0.000377  (-0.002544  0.017006  0.009034)
 77:   1653.47   0.016727   84.53  0.003157  ( 0.049584 -0.026165  0.003698)
 78:   1713.76   0.151622  766.24  0.027609  ( 0.135529 -0.053755 -0.079698)
 79:   1726.34   0.071408  360.87  0.012908  ( 0.042632 -0.068894  0.079651)
 80:   3040.65   0.008556   43.24  0.000878  (-0.001915  0.020171  0.021623)
 81:   3046.64   0.017272   87.29  0.001769  (-0.041697  0.000764  0.005472)
 82:   3069.22   0.000706    3.57  0.000072  (-0.007393 -0.000309  0.004133)
 83:   3091.83   0.003632   18.35  0.000367  ( 0.013875  0.002370 -0.012978)
 84:   3098.31   0.009801   49.53  0.000987  (-0.003981  0.029434 -0.010248)
 85:   3114.13   0.005042   25.48  0.000505  (-0.004783 -0.019223  0.010621)
 86:   3134.52   0.001191    6.02  0.000119  ( 0.002244  0.005281  0.009253)
 87:   3142.75   0.000973    4.92  0.000097  (-0.007611  0.005628  0.002641)
 88:   3167.17   0.004509   22.79  0.000444  ( 0.008968 -0.016060  0.010294)
 89:   3174.25   0.003314   16.75  0.000326  ( 0.015405  0.002218  0.009141)
 90:   3190.90   0.000078    0.39  0.000008  (-0.000343 -0.002565 -0.000955)
 91:   3193.96   0.000858    4.34  0.000084  (-0.000287 -0.002546 -0.008789)
 92:   3199.09   0.002938   14.85  0.000287  (-0.010934 -0.009437 -0.008833)
 93:   3208.24   0.006587   33.29  0.000641  ( 0.012659 -0.021355 -0.004948)
 94:   3216.38   0.002794   14.12  0.000271  (-0.014333 -0.003260 -0.007418)
 95:   3226.09   0.001202    6.07  0.000116  ( 0.008236 -0.006855 -0.001196)

--------------------------
THERMOCHEMISTRY AT 298.15K
--------------------------

Temperature         ... 298.15 K
Pressure            ... 1.00 atm
Total Mass          ... 220.27 AMU

Throughout the following assumptions are being made:
  (1) The electronic state is orbitally nondegenerate
  (2) There are no thermally accessible electronically excited states
  (3) Hindered rotations indicated by low frequency modes are not
      treated as such but are treated as vibrations and this may
      cause some error
  (4) All equations used are the standard statistical mechanics
      equations for an ideal gas
  (5) All vibrations are strictly harmonic

freq.      24.91  E(vib)   ...       0.56
freq.      32.70  E(vib)   ...       0.55
freq.      61.35  E(vib)   ...       0.51
freq.      71.18  E(vib)   ...       0.50
freq.      84.27  E(vib)   ...       0.48
freq.      96.89  E(vib)   ...       0.46
freq.     106.45  E(vib)   ...       0.45
freq.     114.37  E(vib)   ...       0.44
freq.     136.02  E(vib)   ...       0.42
freq.     138.02  E(vib)   ...       0.42
freq.     222.82  E(vib)   ...       0.33
freq.     229.54  E(vib)   ...       0.32
freq.     248.92  E(vib)   ...       0.31
freq.     275.51  E(vib)   ...       0.28
freq.     336.99  E(vib)   ...       0.24
freq.     388.40  E(vib)   ...       0.20
freq.     404.28  E(vib)   ...       0.19
freq.     424.92  E(vib)   ...       0.18
freq.     443.64  E(vib)   ...       0.17
freq.     449.75  E(vib)   ...       0.17
freq.     505.82  E(vib)   ...       0.14
freq.     553.32  E(vib)   ...       0.12
freq.     588.17  E(vib)   ...       0.10
freq.     593.21  E(vib)   ...       0.10
freq.     620.91  E(vib)   ...       0.09
freq.     635.48  E(vib)   ...       0.09
freq.     662.99  E(vib)   ...       0.08
freq.     716.37  E(vib)   ...       0.07
freq.     747.08  E(vib)   ...       0.06
freq.     793.57  E(vib)   ...       0.05
freq.     822.61  E(vib)   ...       0.05
freq.     865.41  E(vib)   ...       0.04
freq.     923.83  E(vib)   ...       0.03
freq.     945.33  E(vib)   ...       0.03
freq.     972.17  E(vib)   ...       0.03
freq.     984.96  E(vib)   ...       0.02
freq.    1007.97  E(vib)   ...       0.02
freq.    1009.35  E(vib)   ...       0.02
freq.    1018.95  E(vib)   ...       0.02
freq.    1041.99  E(vib)   ...       0.02
freq.    1061.28  E(vib)   ...       0.02
freq.    1064.04  E(vib)   ...       0.02
freq.    1088.94  E(vib)   ...       0.02
freq.    1102.21  E(vib)   ...       0.02
freq.    1131.93  E(vib)   ...       0.01
freq.    1140.27  E(vib)   ...       0.01
freq.    1171.82  E(vib)   ...       0.01
freq.    1181.88  E(vib)   ...       0.01
freq.    1182.82  E(vib)   ...       0.01
freq.    1195.81  E(vib)   ...       0.01
freq.    1266.81  E(vib)   ...       0.01
freq.    1288.97  E(vib)   ...       0.01
freq.    1329.74  E(vib)   ...       0.01
freq.    1354.81  E(vib)   ...       0.01
freq.    1359.57  E(vib)   ...       0.01
freq.    1383.09  E(vib)   ...       0.01
freq.    1408.91  E(vib)   ...       0.00
freq.    1434.01  E(vib)   ...       0.00
freq.    1442.60  E(vib)   ...       0.00
freq.    1455.05  E(vib)   ...       0.00
freq.    1480.45  E(vib)   ...       0.00
freq.    1483.69  E(vib)   ...       0.00
freq.    1489.45  E(vib)   ...       0.00
freq.    1492.76  E(vib)   ...       0.00
freq.    1498.11  E(vib)   ...       0.00
freq.    1508.07  E(vib)   ...       0.00
freq.    1512.84  E(vib)   ...       0.00
freq.    1522.94  E(vib)   ...       0.00
freq.    1542.52  E(vib)   ...       0.00
freq.    1551.96  E(vib)   ...       0.00
freq.    1639.97  E(vib)   ...       0.00
freq.    1653.47  E(vib)   ...       0.00
freq.    1713.76  E(vib)   ...       0.00
freq.    1726.34  E(vib)   ...       0.00
freq.    3040.65  E(vib)   ...       0.00
freq.    3046.64  E(vib)   ...       0.00
freq.    3069.22  E(vib)   ...       0.00
freq.    3091.83  E(vib)   ...       0.00
freq.    3098.31  E(vib)   ...       0.00
freq.    3114.13  E(vib)   ...       0.00
freq.    3134.52  E(vib)   ...       0.00
freq.    3142.75  E(vib)   ...       0.00
freq.    3167.17  E(vib)   ...       0.00
freq.    3174.25  E(vib)   ...       0.00
freq.    3190.90  E(vib)   ...       0.00
freq.    3193.96  E(vib)   ...       0.00
freq.    3199.09  E(vib)   ...       0.00
freq.    3208.24  E(vib)   ...       0.00
freq.    3216.38  E(vib)   ...       0.00
freq.    3226.09  E(vib)   ...       0.00

------------
INNER ENERGY
------------

The inner energy is: U= E(el) + E(ZPE) + E(vib) + E(rot) + E(trans)
    E(el)   - is the total energy from the electronic structure calculation
              = E(kin-el) + E(nuc-el) + E(el-el) + E(nuc-nuc)
    E(ZPE)  - the the zero temperature vibrational energy from the frequency calculation
    E(vib)  - the the finite temperature correction to E(ZPE) due to population
              of excited vibrational states
    E(rot)  - is the rotational thermal energy
    E(trans)- is the translational thermal energy

Summary of contributions to the inner energy U:
Electronic energy                ...   -726.51277289 Eh
Zero point energy                ...      0.26762879 Eh     167.94 kcal/mol
Thermal vibrational correction   ...      0.01368364 Eh       8.59 kcal/mol
Thermal rotational correction    ...      0.00141627 Eh       0.89 kcal/mol
Thermal translational correction ...      0.00141627 Eh       0.89 kcal/mol
-----------------------------------------------------------------------
Total thermal energy                   -726.22862791 Eh

Summary of corrections to the electronic energy:
(perhaps to be used in another calculation)
Total thermal correction                  0.01651619 Eh      10.36 kcal/mol
Non-thermal (ZPE) correction              0.26762879 Eh     167.94 kcal/mol
-----------------------------------------------------------------------
Total correction                          0.28414498 Eh     178.30 kcal/mol

--------
ENTHALPY
--------

The enthalpy is H = U + kB*T
                kB is Boltzmann's constant
Total free energy                 ...   -726.22862791 Eh
Thermal Enthalpy correction       ...      0.00094421 Eh       0.59 kcal/mol
-----------------------------------------------------------------------
Total Enthalpy                    ...   -726.22768370 Eh

Note: Only C1 symmetry has been detected, increase convergence thresholds
      if your molecule has a higher symmetry. Symmetry factor of 1.0 is
      used for the rotational entropy correction.

Note: Rotational entropy computed according to Herzberg
Infrared and Raman Spectra, Chapter V,1, Van Nostrand Reinhold, 1945
Point Group:  C1, Symmetry Number:   1
Rotational constants in cm-1:     0.029314     0.011066     0.009483

                             ****ORCA TERMINATED NORMALLY****
TOTAL RUN TIME: 0 days 0 hours 44 minutes 0 seconds 470 msec
