                         Program Version 5.0.4 -  RELEASE  -
|  1> ! OPT FREQ B3LYP 6-31G(d) D4 AUTOAUX
|  2> ! CPCM
|  3>
|  4> %cpcm
|  5> epsilon 9.8629
|  6> refrac  1.4295
|  7> end
|  8>
|  9> %PAL NPROCS 4 END
| 10>
| 11> %maxcore 3375
| 12>
| 13> *xyzfile 0 1 /users/fjb15167/WWenergy/structures/Ny.xyz
| 14>
| 15>                          ****END OF INPUT****
 Total Charge           Charge          ....    0
 Multiplicity           Mult            ....    1
 Number of Electrons    NEL             ....  134
Dispersion correction           -0.070379588
FINAL SINGLE POINT ENERGY      -840.988244743442
Dispersion correction            ... Starting D4
Dispersion correction           -0.069634262
FINAL SINGLE POINT ENERGY      -840.989271491644
Dispersion correction            ... Starting D4
Dispersion correction           -0.070237421
FINAL SINGLE POINT ENERGY      -840.989543382821
Dispersion correction            ... Starting D4
FINAL SINGLE POINT ENERGY      -840.989651684333
FINAL SINGLE POINT ENERGY      -840.989675070888
FINAL SINGLE POINT ENERGY      -840.989695862855
FINAL SINGLE POINT ENERGY      -840.989715820174
FINAL SINGLE POINT ENERGY      -840.989724174891
FINAL SINGLE POINT ENERGY      -840.989738781567
FINAL SINGLE POINT ENERGY      -840.989746935430
FINAL SINGLE POINT ENERGY      -840.989753254184
Dispersion correction           -0.070077929
FINAL SINGLE POINT ENERGY      -840.989756326697
Dispersion correction            ... Starting D4
Dispersion correction           -0.070076668
FINAL SINGLE POINT ENERGY      -840.989759253549
Dispersion correction            ... Starting D4
                    ***********************HURRAY********************

CARTESIAN COORDINATES (ANGSTROEM)
---------------------------------
  C     -1.963105   -1.633458    1.164998
  H      0.069501   -2.277573    1.537187
  H     -0.929166   -3.498542    0.745793
  H     -1.194829   -3.123069    2.469504
  O     -2.836482   -1.313450    1.981182
  C     -0.938936   -2.700677    1.496655
  N     -1.874860   -1.039108   -0.066332
  C     -2.929469   -0.116855   -0.491237
  H     -3.410559   -0.508723   -1.392534
  H     -3.668655   -0.066056    0.306410
  C     -0.883443   -1.427616   -1.080475
  H     -0.946616   -2.505311   -1.271518
  H     -1.190884   -0.929256   -2.005005
  C      0.550661   -1.052376   -0.757925
  C      1.592952   -1.899927   -1.153564
  H      1.359903   -2.839660   -1.649677
  C      2.925724   -1.568163   -0.920601
  H      3.730263   -2.230645   -1.226236
  C      3.237728   -0.369278   -0.269787
  O      4.558011   -0.090071   -0.053913
  H      4.635061    0.762894    0.406899
  C      0.879229    0.142789   -0.109395
  H      0.093457    0.813479    0.219818
  C      2.207676    0.485738    0.138636
  H      2.446969    1.415996    0.649861
  C     -2.367126    1.253539   -0.885126
  O     -2.195243    1.503043   -2.085915
  N     -2.040928    2.132677    0.100387
  C     -1.446599    3.416162   -0.256139
  H     -0.422224    3.479288    0.133526
  H     -1.431178    3.510523   -1.340503
  H     -2.035293    4.232329    0.179424
  C     -2.182084    1.903728    1.534116
  H     -1.196569    1.959239    2.015091
  H     -2.818756    2.683745    1.970141
  H     -2.613132    0.928646    1.753253

 Multiplicity           Mult            ....    1
 Number of Electrons    NEL             ....  134
 Basis Dimension        Dim             ....  288

ORBITAL ENERGIES
----------------

  NO   OCC          E(Eh)            E(eV)
   0   2.0000     -19.167171      -521.5652
   1   2.0000     -19.110217      -520.0154
   2   2.0000     -19.108117      -519.9583
   3   2.0000     -14.362191      -390.8151
   4   2.0000     -14.361501      -390.7963
   5   2.0000     -10.283954      -279.8406
   6   2.0000     -10.280713      -279.7524
   7   2.0000     -10.242086      -278.7013
   8   2.0000     -10.215783      -277.9856
   9   2.0000     -10.212248      -277.8894
  10   2.0000     -10.199555      -277.5440
  11   2.0000     -10.196754      -277.4678
  12   2.0000     -10.184373      -277.1309
  13   2.0000     -10.181628      -277.0562
  14   2.0000     -10.180885      -277.0360
  15   2.0000     -10.178970      -276.9838
  16   2.0000     -10.176410      -276.9142
  17   2.0000     -10.171723      -276.7867
  18   2.0000      -1.052622       -28.6433
  19   2.0000      -1.033390       -28.1200
  20   2.0000      -1.026415       -27.9302
  21   2.0000      -0.934801       -25.4372
  22   2.0000      -0.928523       -25.2664
  23   2.0000      -0.848805       -23.0972
  24   2.0000      -0.768553       -20.9134
  25   2.0000      -0.751544       -20.4506
  26   2.0000      -0.744337       -20.2544
  27   2.0000      -0.719692       -19.5838
  28   2.0000      -0.707894       -19.2628
  29   2.0000      -0.685674       -18.6581
  30   2.0000      -0.670134       -18.2353
  31   2.0000      -0.618808       -16.8386
  32   2.0000      -0.595493       -16.2042
  33   2.0000      -0.550873       -14.9900
  34   2.0000      -0.539329       -14.6759
  35   2.0000      -0.532443       -14.4885
  36   2.0000      -0.510934       -13.9032
  37   2.0000      -0.495903       -13.4942
  38   2.0000      -0.481843       -13.1116
  39   2.0000      -0.475864       -12.9489
  40   2.0000      -0.466660       -12.6985
  41   2.0000      -0.460786       -12.5386
  42   2.0000      -0.448771       -12.2117
  43   2.0000      -0.440756       -11.9936
  44   2.0000      -0.428207       -11.6521
  45   2.0000      -0.416763       -11.3407
  46   2.0000      -0.412175       -11.2158
  47   2.0000      -0.407875       -11.0988
  48   2.0000      -0.402944       -10.9647
  49   2.0000      -0.398695       -10.8490
  50   2.0000      -0.398434       -10.8419
  51   2.0000      -0.395151       -10.7526
  52   2.0000      -0.393423       -10.7056
  53   2.0000      -0.388096       -10.5606
  54   2.0000      -0.376131       -10.2350
  55   2.0000      -0.371209       -10.1011
  56   2.0000      -0.361240        -9.8298
  57   2.0000      -0.357852        -9.7377
  58   2.0000      -0.347166        -9.4469
  59   2.0000      -0.333112        -9.0644
  60   2.0000      -0.324563        -8.8318
  61   2.0000      -0.260728        -7.0948
  62   2.0000      -0.252830        -6.8799
  63   2.0000      -0.250711        -6.8222
  64   2.0000      -0.240801        -6.5525
  65   2.0000      -0.236458        -6.4343
  66   2.0000      -0.214000        -5.8232
  67   0.0000      -0.002268        -0.0617
  68   0.0000       0.010814         0.2943
  69   0.0000       0.016439         0.4473
  70   0.0000       0.028540         0.7766
  71   0.0000       0.084188         2.2909

MULLIKEN ATOMIC CHARGES
-----------------------
   0 C :    0.530161
   1 H :    0.196298
   2 H :    0.189304
   3 H :    0.179943
   4 O :   -0.527929
   5 C :   -0.555301
   6 N :   -0.374556
   7 C :   -0.247221
   8 H :    0.184095
   9 H :    0.203256
  10 C :   -0.247545
  11 H :    0.182795
  12 H :    0.194944
  13 C :    0.135058
  14 C :   -0.199626
  15 H :    0.149046
  16 C :   -0.186633
  17 H :    0.150913
  18 C :    0.347328
  19 O :   -0.665375
  20 H :    0.446003
  21 C :   -0.186960
  22 H :    0.159460
  23 C :   -0.227214
  24 H :    0.155503
  25 C :    0.518519
  26 O :   -0.533800
  27 N :   -0.360939
  28 C :   -0.329956
  29 H :    0.169409
  30 H :    0.188810
  31 H :    0.171849
  32 C :   -0.354295
  33 H :    0.169772
  34 H :    0.171853
  35 H :    0.203032
Sum of atomic charges:    0.0000000

LOEWDIN ATOMIC CHARGES
----------------------
   0 C :    0.117965
   1 H :    0.158952
   2 H :    0.153335
   3 H :    0.149491
   4 O :   -0.331398
   5 C :   -0.392453
   6 N :   -0.071578
   7 C :   -0.177992
   8 H :    0.146394
   9 H :    0.158607
  10 C :   -0.153092
  11 H :    0.142310
  12 H :    0.154645
  13 C :   -0.057742
  14 C :   -0.127910
  15 H :    0.140885
  16 C :   -0.165071
  17 H :    0.145209
  18 C :    0.062658
  19 O :   -0.334030
  20 H :    0.346745
  21 C :   -0.131601
  22 H :    0.143741
  23 C :   -0.180747
  24 H :    0.144146
  25 C :    0.094646
  26 O :   -0.334843
  27 N :   -0.069017
  28 C :   -0.280054
  29 H :    0.132710
  30 H :    0.149261
  31 H :    0.135410
  32 C :   -0.288944
  33 H :    0.132780
  34 H :    0.134764
  35 H :    0.151817

  Mayer bond orders larger than 0.100000
B(  0-C ,  4-O ) :   1.7479 B(  0-C ,  5-C ) :   0.9990 B(  0-C ,  6-N ) :   1.1592
B(  1-H ,  5-C ) :   0.9158 B(  2-H ,  5-C ) :   0.9219 B(  3-H ,  5-C ) :   0.9387
B(  6-N ,  7-C ) :   0.9482 B(  6-N , 10-C ) :   0.9185 B(  7-C ,  8-H ) :   0.9164
B(  7-C ,  9-H ) :   0.8950 B(  7-C , 25-C ) :   0.9360 B( 10-C , 11-H ) :   0.9183
B( 10-C , 12-H ) :   0.9045 B( 10-C , 13-C ) :   0.9614 B( 13-C , 14-C ) :   1.4120
B( 13-C , 21-C ) :   1.4297 B( 14-C , 15-H ) :   0.9198 B( 14-C , 16-C ) :   1.4487
B( 16-C , 17-H ) :   0.9184 B( 16-C , 18-C ) :   1.3956 B( 18-C , 19-O ) :   0.9634
B( 18-C , 23-C ) :   1.3805 B( 19-O , 20-H ) :   0.7545 B( 21-C , 22-H ) :   0.9019
B( 21-C , 23-C ) :   1.4328 B( 23-C , 24-H ) :   0.9169 B( 25-C , 26-O ) :   1.7516
B( 25-C , 27-N ) :   1.1923 B( 26-O , 27-N ) :   0.1027 B( 27-N , 28-C ) :   0.9458
B( 27-N , 32-C ) :   0.9478 B( 28-C , 29-H ) :   0.9350 B( 28-C , 30-H ) :   0.9235
B( 28-C , 31-H ) :   0.9375 B( 32-C , 33-H ) :   0.9317 B( 32-C , 34-H ) :   0.9343
B( 32-C , 35-H ) :   0.8950

Dispersion correction           -0.070080124
FINAL SINGLE POINT ENERGY      -840.989761845453

DIPOLE MOMENT
-------------
                                X             Y             Z
Electronic contribution:      4.00057      -2.87924      -3.77471
Nuclear contribution   :     -3.01655       3.33467       4.47599
                        -----------------------------------------
Total Dipole Moment    :      0.98402       0.45543       0.70128
                        -----------------------------------------
Magnitude (a.u.)       :      1.29132
Magnitude (Debye)      :      3.28227

Dispersion correction in the Hessian             ... Starting D4

VIBRATIONAL FREQUENCIES
-----------------------

Scaling factor for frequencies =  1.000000000  (already applied!)

   0:         0.00 cm**-1
   1:         0.00 cm**-1
   2:         0.00 cm**-1
   3:         0.00 cm**-1
   4:         0.00 cm**-1
   5:         0.00 cm**-1
   6:        -2.82 cm**-1 ***imaginary mode***
   7:        37.95 cm**-1
   8:        50.30 cm**-1
   9:        60.17 cm**-1
  10:        66.81 cm**-1
  11:        85.11 cm**-1
  12:        99.77 cm**-1
  13:       113.66 cm**-1
  14:       124.47 cm**-1
  15:       155.59 cm**-1
  16:       169.35 cm**-1
  17:       179.18 cm**-1
  18:       238.95 cm**-1
  19:       266.72 cm**-1
  20:       288.01 cm**-1
  21:       308.21 cm**-1
  22:       342.18 cm**-1
  23:       355.03 cm**-1
  24:       361.37 cm**-1
  25:       376.96 cm**-1
  26:       421.75 cm**-1
  27:       423.53 cm**-1
  28:       431.03 cm**-1
  29:       457.88 cm**-1
  30:       485.91 cm**-1
  31:       516.92 cm**-1
  32:       542.29 cm**-1
  33:       580.87 cm**-1
  34:       602.74 cm**-1
  35:       636.18 cm**-1
  36:       654.25 cm**-1
  37:       704.94 cm**-1
  38:       716.82 cm**-1
  39:       768.07 cm**-1
  40:       776.54 cm**-1
  41:       821.13 cm**-1
  42:       827.44 cm**-1
  43:       843.03 cm**-1
  44:       863.73 cm**-1
  45:       942.21 cm**-1
  46:       958.10 cm**-1
  47:       960.37 cm**-1
  48:       986.22 cm**-1
  49:      1004.34 cm**-1
  50:      1009.80 cm**-1
  51:      1032.84 cm**-1
  52:      1063.39 cm**-1
  53:      1089.07 cm**-1
  54:      1100.81 cm**-1
  55:      1133.97 cm**-1
  56:      1139.09 cm**-1
  57:      1172.43 cm**-1
  58:      1187.97 cm**-1
  59:      1198.00 cm**-1
  60:      1204.88 cm**-1
  61:      1220.14 cm**-1
  62:      1242.37 cm**-1
  63:      1273.86 cm**-1
  64:      1283.16 cm**-1
  65:      1303.59 cm**-1
  66:      1311.91 cm**-1
  67:      1341.27 cm**-1
  68:      1373.16 cm**-1
  69:      1380.65 cm**-1
  70:      1394.60 cm**-1
  71:      1414.39 cm**-1
  72:      1441.83 cm**-1
  73:      1459.30 cm**-1
  74:      1466.61 cm**-1
  75:      1484.68 cm**-1
  76:      1486.23 cm**-1
  77:      1492.25 cm**-1
  78:      1498.25 cm**-1
  79:      1507.50 cm**-1
  80:      1510.25 cm**-1
  81:      1519.79 cm**-1
  82:      1526.24 cm**-1
  83:      1535.89 cm**-1
  84:      1560.15 cm**-1
  85:      1564.26 cm**-1
  86:      1648.07 cm**-1
  87:      1673.52 cm**-1
  88:      1706.72 cm**-1
  89:      1713.14 cm**-1
  90:      3035.42 cm**-1
  91:      3043.16 cm**-1
  92:      3059.05 cm**-1
  93:      3067.58 cm**-1
  94:      3084.97 cm**-1
  95:      3088.05 cm**-1
  96:      3095.82 cm**-1
  97:      3106.53 cm**-1
  98:      3133.13 cm**-1
  99:      3172.96 cm**-1
 100:      3175.00 cm**-1
 101:      3183.27 cm**-1
 102:      3185.36 cm**-1
 103:      3194.61 cm**-1
 104:      3196.55 cm**-1
 105:      3211.82 cm**-1
 106:      3234.32 cm**-1
 107:      3719.48 cm**-1

IR SPECTRUM
-----------

 Mode   freq       eps      Int      T**2         TX        TY        TZ
       cm**-1   L/(mol*cm) km/mol    a.u.
----------------------------------------------------------------------------
  7:     37.95   0.000118    0.60  0.000973  (-0.014034  0.011381  0.025427)
  8:     50.30   0.000811    4.10  0.005030  (-0.068706  0.015625 -0.008078)
  9:     60.17   0.001235    6.24  0.006403  ( 0.066936 -0.020094  0.038966)
 10:     66.81   0.000083    0.42  0.000389  ( 0.014131 -0.013715 -0.001155)
 11:     85.11   0.000031    0.16  0.000115  (-0.003353  0.004869 -0.008966)
 12:     99.77   0.003156   15.95  0.009870  (-0.008042 -0.099001 -0.002102)
 13:    113.66   0.000366    1.85  0.001005  ( 0.000668 -0.031601 -0.002508)
 14:    124.47   0.000588    2.97  0.001474  ( 0.008624  0.032349  0.018800)
 15:    155.59   0.000159    0.80  0.000318  ( 0.012196 -0.002057  0.012856)
 16:    169.35   0.001015    5.13  0.001871  (-0.010163 -0.038412  0.017102)
 17:    179.18   0.000122    0.62  0.000212  ( 0.009325 -0.008569  0.007198)
 18:    238.95   0.000263    1.33  0.000343  (-0.017294  0.002078 -0.006298)
 19:    266.72   0.000356    1.80  0.000416  (-0.004745 -0.019826  0.000620)
 20:    288.01   0.003663   18.51  0.003968  ( 0.056559 -0.027735 -0.000553)
 21:    308.21   0.001978   10.00  0.002003  (-0.016089  0.031110 -0.027858)
 22:    342.18   0.001551    7.84  0.001414  ( 0.002572 -0.034873  0.013833)
 23:    355.03   0.002480   12.53  0.002180  ( 0.012916  0.035893  0.026923)
 24:    361.37   0.034655  175.13  0.029926  ( 0.009356  0.082679 -0.151668)
 25:    376.96   0.002130   10.76  0.001763  (-0.023904 -0.024865 -0.023953)
 26:    421.75   0.000171    0.87  0.000127  ( 0.010842  0.002393  0.001846)
 27:    423.53   0.000418    2.11  0.000308  ( 0.016573  0.005541  0.001666)
 28:    431.03   0.000766    3.87  0.000555  (-0.016481 -0.016745 -0.001683)
 29:    457.88   0.005424   27.41  0.003697  (-0.053535 -0.015643  0.024206)
 30:    485.91   0.005008   25.31  0.003216  (-0.043723  0.026800 -0.024209)
 31:    516.92   0.002211   11.17  0.001335  (-0.003697 -0.027381  0.023905)
 32:    542.29   0.001055    5.33  0.000607  (-0.021233 -0.011264 -0.005410)
 33:    580.87   0.002870   14.50  0.001542  ( 0.006933  0.037984 -0.007131)
 34:    602.74   0.003741   18.90  0.001937  (-0.028869 -0.031944  0.009107)
 35:    636.18   0.004876   24.64  0.002392  ( 0.008011  0.018085  0.044728)
 36:    654.25   0.000734    3.71  0.000350  (-0.002746 -0.006221 -0.017431)
 37:    704.94   0.000052    0.26  0.000023  ( 0.002572  0.003764  0.001492)
 38:    716.82   0.001201    6.07  0.000523  (-0.022424 -0.001096  0.004340)
 39:    768.07   0.001362    6.88  0.000553  (-0.009596 -0.016795  0.013381)
 40:    776.54   0.002062   10.42  0.000829  (-0.020808  0.012549  0.015435)
 41:    821.13   0.007827   39.55  0.002974  (-0.003276 -0.005529 -0.054158)
 42:    827.44   0.002696   13.62  0.001017  ( 0.001063 -0.031854 -0.000962)
 43:    843.03   0.007015   35.45  0.002597  ( 0.003159  0.036928 -0.034974)
 44:    863.73   0.003656   18.47  0.001321  (-0.034699 -0.010697 -0.001525)
 45:    942.21   0.000933    4.71  0.000309  ( 0.015355 -0.002227  0.008255)
 46:    958.10   0.000353    1.79  0.000115  (-0.003019  0.003956  0.009503)
 47:    960.37   0.000387    1.96  0.000126  (-0.006751  0.005290 -0.007228)
 48:    986.22   0.006367   32.18  0.002015  ( 0.033263 -0.025814  0.015554)
 49:   1004.34   0.006776   34.24  0.002106  (-0.017741 -0.027317 -0.032319)
 50:   1009.80   0.006692   33.82  0.002068  ( 0.024570  0.028459 -0.025584)
 51:   1032.84   0.000349    1.76  0.000105  (-0.009369  0.004197 -0.000188)
 52:   1063.39   0.002487   12.57  0.000730  ( 0.020449  0.015790  0.007894)
 53:   1089.07   0.003752   18.96  0.001075  (-0.010585 -0.005340  0.030570)
 54:   1100.81   0.006375   32.22  0.001807  (-0.001402  0.024017  0.035050)
 55:   1133.97   0.006758   34.15  0.001860  ( 0.014529  0.036379  0.018035)
 56:   1139.09   0.000158    0.80  0.000043  ( 0.002871 -0.005880  0.000648)
 57:   1172.43   0.012399   62.66  0.003300  (-0.003903 -0.033958 -0.046172)
 58:   1187.97   0.000602    3.04  0.000158  ( 0.007624 -0.009320 -0.003635)
 59:   1198.00   0.052446  265.04  0.013661  ( 0.115876  0.015241  0.001434)
 60:   1204.88   0.001353    6.84  0.000350  ( 0.018036 -0.004119  0.002840)
 61:   1220.14   0.009529   48.16  0.002437  (-0.039265 -0.011718 -0.027536)
 62:   1242.37   0.001355    6.85  0.000340  ( 0.017098  0.001816 -0.006689)
 63:   1273.86   0.024928  125.97  0.006107  ( 0.013927 -0.044706  0.062562)
 64:   1283.16   0.019328   97.68  0.004701  ( 0.019997  0.061389 -0.023068)
 65:   1303.59   0.032485  164.16  0.007776  ( 0.080197  0.036219  0.005754)
 66:   1311.91   0.007803   39.43  0.001856  (-0.028327  0.019566 -0.025899)
 67:   1341.27   0.007115   35.95  0.001655  (-0.032455 -0.023264  0.007794)
 68:   1373.16   0.001037    5.24  0.000236  (-0.008799 -0.001614 -0.012473)
 69:   1380.65   0.008869   44.82  0.002005  ( 0.041724  0.015967  0.002965)
 70:   1394.60   0.018356   92.76  0.004107  ( 0.044935  0.008319 -0.044933)
 71:   1414.39   0.003847   19.44  0.000849  ( 0.005290  0.019002 -0.021440)
 72:   1441.83   0.010815   54.66  0.002341  (-0.002528 -0.032772 -0.035502)
 73:   1459.30   0.019960  100.87  0.004268  (-0.007559 -0.064840 -0.002642)
 74:   1466.61   0.030872  156.01  0.006569  ( 0.003807 -0.023187  0.077568)
 75:   1484.68   0.007148   36.12  0.001502  ( 0.033370 -0.002061 -0.019613)
 76:   1486.23   0.005507   27.83  0.001156  (-0.023194 -0.022698 -0.010160)
 77:   1492.25   0.003475   17.56  0.000727  (-0.018505 -0.015061  0.012548)
 78:   1498.25   0.001323    6.69  0.000276  ( 0.003212 -0.016080  0.002605)
 79:   1507.50   0.004211   21.28  0.000872  (-0.011690  0.020833 -0.017350)
 80:   1510.25   0.001376    6.95  0.000284  ( 0.011769 -0.011345  0.004138)
 81:   1519.79   0.008364   42.27  0.001717  ( 0.036673 -0.016920  0.009284)
 82:   1526.24   0.014201   71.77  0.002904  (-0.014665  0.004341 -0.051670)
 83:   1535.89   0.002350   11.87  0.000477  (-0.019390  0.004879 -0.008812)
 84:   1560.15   0.020682  104.52  0.004137  ( 0.037471  0.049927  0.015492)
 85:   1564.26   0.023112  116.80  0.004611  ( 0.067375  0.005427  0.006476)
 86:   1648.07   0.007396   37.38  0.001401  (-0.035222  0.010495  0.007055)
 87:   1673.52   0.012674   64.05  0.002363  ( 0.042850  0.020126  0.011053)
 88:   1706.72   0.191409  967.30  0.034998  (-0.055498  0.025295  0.176856)
 89:   1713.14   0.026332  133.07  0.004797  ( 0.065946  0.005426  0.020454)
 90:   3035.42   0.008677   43.85  0.000892  (-0.001182  0.006628  0.029099)
 91:   3043.16   0.017816   90.03  0.001827  (-0.016693 -0.033664 -0.020371)
 92:   3059.05   0.007277   36.78  0.000742  ( 0.003667  0.022072  0.015548)
 93:   3067.58   0.001233    6.23  0.000125  (-0.003014  0.010742  0.000956)
 94:   3084.97   0.012483   63.08  0.001263  (-0.030629  0.017695  0.003389)
 95:   3088.05   0.006609   33.40  0.000668  (-0.018094 -0.002641 -0.018263)
 96:   3095.82   0.005460   27.59  0.000550  ( 0.019425 -0.013101 -0.001175)
 97:   3106.53   0.001673    8.46  0.000168  (-0.002656  0.010656 -0.006892)
 98:   3133.13   0.001416    7.15  0.000141  ( 0.003743  0.007403  0.008496)
 99:   3172.96   0.002898   14.64  0.000285  (-0.006346 -0.007414  0.013775)
100:   3175.00   0.000498    2.52  0.000049  ( 0.002329 -0.006214 -0.002214)
101:   3183.27   0.005939   30.01  0.000582  ( 0.012662  0.017990  0.009912)
102:   3185.36   0.000651    3.29  0.000064  (-0.006345 -0.004473 -0.001873)
103:   3194.61   0.002325   11.75  0.000227  ( 0.002267 -0.014235  0.004400)
104:   3196.55   0.000477    2.41  0.000047  (-0.003339  0.002808  0.005252)
105:   3211.82   0.002937   14.84  0.000285  (-0.012311  0.010132  0.005580)
106:   3234.32   0.000614    3.10  0.000059  (-0.000380 -0.005421 -0.005448)
107:   3719.48   0.024439  123.50  0.002050  (-0.024493 -0.033301 -0.018481)

--------------------------
THERMOCHEMISTRY AT 298.15K
--------------------------

Temperature         ... 298.15 K
Pressure            ... 1.00 atm
Total Mass          ... 250.30 AMU

Throughout the following assumptions are being made:
  (1) The electronic state is orbitally nondegenerate
  (2) There are no thermally accessible electronically excited states
  (3) Hindered rotations indicated by low frequency modes are not
      treated as such but are treated as vibrations and this may
      cause some error
  (4) All equations used are the standard statistical mechanics
      equations for an ideal gas
  (5) All vibrations are strictly harmonic

freq.      37.95  E(vib)   ...       0.54
freq.      50.30  E(vib)   ...       0.52
freq.      60.17  E(vib)   ...       0.51
freq.      66.81  E(vib)   ...       0.50
freq.      85.11  E(vib)   ...       0.48
freq.      99.77  E(vib)   ...       0.46
freq.     113.66  E(vib)   ...       0.44
freq.     124.47  E(vib)   ...       0.43
freq.     155.59  E(vib)   ...       0.40
freq.     169.35  E(vib)   ...       0.38
freq.     179.18  E(vib)   ...       0.37
freq.     238.95  E(vib)   ...       0.32
freq.     266.72  E(vib)   ...       0.29
freq.     288.01  E(vib)   ...       0.27
freq.     308.21  E(vib)   ...       0.26
freq.     342.18  E(vib)   ...       0.23
freq.     355.03  E(vib)   ...       0.22
freq.     361.37  E(vib)   ...       0.22
freq.     376.96  E(vib)   ...       0.21
freq.     421.75  E(vib)   ...       0.18
freq.     423.53  E(vib)   ...       0.18
freq.     431.03  E(vib)   ...       0.18
freq.     457.88  E(vib)   ...       0.16
freq.     485.91  E(vib)   ...       0.15
freq.     516.92  E(vib)   ...       0.13
freq.     542.29  E(vib)   ...       0.12
freq.     580.87  E(vib)   ...       0.11
freq.     602.74  E(vib)   ...       0.10
freq.     636.18  E(vib)   ...       0.09
freq.     654.25  E(vib)   ...       0.08
freq.     704.94  E(vib)   ...       0.07
freq.     716.82  E(vib)   ...       0.07
freq.     768.07  E(vib)   ...       0.06
freq.     776.54  E(vib)   ...       0.05
freq.     821.13  E(vib)   ...       0.05
freq.     827.44  E(vib)   ...       0.04
freq.     843.03  E(vib)   ...       0.04
freq.     863.73  E(vib)   ...       0.04
freq.     942.21  E(vib)   ...       0.03
freq.     958.10  E(vib)   ...       0.03
freq.     960.37  E(vib)   ...       0.03
freq.     986.22  E(vib)   ...       0.02
freq.    1004.34  E(vib)   ...       0.02
freq.    1009.80  E(vib)   ...       0.02
freq.    1032.84  E(vib)   ...       0.02
freq.    1063.39  E(vib)   ...       0.02
freq.    1089.07  E(vib)   ...       0.02
freq.    1100.81  E(vib)   ...       0.02
freq.    1133.97  E(vib)   ...       0.01
freq.    1139.09  E(vib)   ...       0.01
freq.    1172.43  E(vib)   ...       0.01
freq.    1187.97  E(vib)   ...       0.01
freq.    1198.00  E(vib)   ...       0.01
freq.    1204.88  E(vib)   ...       0.01
freq.    1220.14  E(vib)   ...       0.01
freq.    1242.37  E(vib)   ...       0.01
freq.    1273.86  E(vib)   ...       0.01
freq.    1283.16  E(vib)   ...       0.01
freq.    1303.59  E(vib)   ...       0.01
freq.    1311.91  E(vib)   ...       0.01
freq.    1341.27  E(vib)   ...       0.01
freq.    1373.16  E(vib)   ...       0.01
freq.    1380.65  E(vib)   ...       0.01
freq.    1394.60  E(vib)   ...       0.00
freq.    1414.39  E(vib)   ...       0.00
freq.    1441.83  E(vib)   ...       0.00
freq.    1459.30  E(vib)   ...       0.00
freq.    1466.61  E(vib)   ...       0.00
freq.    1484.68  E(vib)   ...       0.00
freq.    1486.23  E(vib)   ...       0.00
freq.    1492.25  E(vib)   ...       0.00
freq.    1498.25  E(vib)   ...       0.00
freq.    1507.50  E(vib)   ...       0.00
freq.    1510.25  E(vib)   ...       0.00
freq.    1519.79  E(vib)   ...       0.00
freq.    1526.24  E(vib)   ...       0.00
freq.    1535.89  E(vib)   ...       0.00
freq.    1560.15  E(vib)   ...       0.00
freq.    1564.26  E(vib)   ...       0.00
freq.    1648.07  E(vib)   ...       0.00
freq.    1673.52  E(vib)   ...       0.00
freq.    1706.72  E(vib)   ...       0.00
freq.    1713.14  E(vib)   ...       0.00
freq.    3035.42  E(vib)   ...       0.00
freq.    3043.16  E(vib)   ...       0.00
freq.    3059.05  E(vib)   ...       0.00
freq.    3067.58  E(vib)   ...       0.00
freq.    3084.97  E(vib)   ...       0.00
freq.    3088.05  E(vib)   ...       0.00
freq.    3095.82  E(vib)   ...       0.00
freq.    3106.53  E(vib)   ...       0.00
freq.    3133.13  E(vib)   ...       0.00
freq.    3172.96  E(vib)   ...       0.00
freq.    3175.00  E(vib)   ...       0.00
freq.    3183.27  E(vib)   ...       0.00
freq.    3185.36  E(vib)   ...       0.00
freq.    3194.61  E(vib)   ...       0.00
freq.    3196.55  E(vib)   ...       0.00
freq.    3211.82  E(vib)   ...       0.00
freq.    3234.32  E(vib)   ...       0.00
freq.    3719.48  E(vib)   ...       0.00

------------
INNER ENERGY
------------

The inner energy is: U= E(el) + E(ZPE) + E(vib) + E(rot) + E(trans)
    E(el)   - is the total energy from the electronic structure calculation
              = E(kin-el) + E(nuc-el) + E(el-el) + E(nuc-nuc)
    E(ZPE)  - the the zero temperature vibrational energy from the frequency calculation
    E(vib)  - the the finite temperature correction to E(ZPE) due to population
              of excited vibrational states
    E(rot)  - is the rotational thermal energy
    E(trans)- is the translational thermal energy

Summary of contributions to the inner energy U:
Electronic energy                ...   -840.98976185 Eh
Zero point energy                ...      0.30130863 Eh     189.07 kcal/mol
Thermal vibrational correction   ...      0.01494303 Eh       9.38 kcal/mol
Thermal rotational correction    ...      0.00141627 Eh       0.89 kcal/mol
Thermal translational correction ...      0.00141627 Eh       0.89 kcal/mol
-----------------------------------------------------------------------
Total thermal energy                   -840.67067764 Eh

Summary of corrections to the electronic energy:
(perhaps to be used in another calculation)
Total thermal correction                  0.01777557 Eh      11.15 kcal/mol
Non-thermal (ZPE) correction              0.30130863 Eh     189.07 kcal/mol
-----------------------------------------------------------------------
Total correction                          0.31908420 Eh     200.23 kcal/mol

--------
ENTHALPY
--------

The enthalpy is H = U + kB*T
                kB is Boltzmann's constant
Total free energy                 ...   -840.67067764 Eh
Thermal Enthalpy correction       ...      0.00094421 Eh       0.59 kcal/mol
-----------------------------------------------------------------------
Total Enthalpy                    ...   -840.66973344 Eh

Rotational constants in cm-1:     0.018546     0.009944     0.008090

                             ****ORCA TERMINATED NORMALLY****
TOTAL RUN TIME: 0 days 0 hours 47 minutes 5 seconds 299 msec
