                         Program Version 5.0.4 -  RELEASE  -
|  1> ! OPT FREQ B3LYP 6-31G(d) D4 AUTOAUX
|  2> ! CPCM
|  3>
|  4> %cpcm
|  5> epsilon 9.8629
|  6> refrac  1.4295
|  7> end
|  8>
|  9> %PAL NPROCS 4 END
| 10>
| 11> %maxcore 3375
| 12>
| 13> *xyzfile 0 1 /users/fjb15167/WWenergy/structures/Nab.xyz
| 14>
| 15>                          ****END OF INPUT****
 Total Charge           Charge          ....    0
 Multiplicity           Mult            ....    1
 Number of Electrons    NEL             ....  110
Dispersion correction           -0.055306369
FINAL SINGLE POINT ENERGY      -652.739261883468
Dispersion correction            ... Starting D4
Dispersion correction           -0.054785519
FINAL SINGLE POINT ENERGY      -652.739731249110
Dispersion correction            ... Starting D4
Dispersion correction           -0.055131945
FINAL SINGLE POINT ENERGY      -652.739858607174
Dispersion correction            ... Starting D4
FINAL SINGLE POINT ENERGY      -652.739915633876
FINAL SINGLE POINT ENERGY      -652.739956538399
FINAL SINGLE POINT ENERGY      -652.739977482142
Dispersion correction           -0.055256007
FINAL SINGLE POINT ENERGY      -652.739983721517
Dispersion correction            ... Starting D4
Dispersion correction           -0.055275623
FINAL SINGLE POINT ENERGY      -652.739986439088
Dispersion correction            ... Starting D4
                    ***********************HURRAY********************

CARTESIAN COORDINATES (ANGSTROEM)
---------------------------------
  C     -0.502730    3.138057   -0.648699
  H      0.366912    2.796677   -1.218305
  H     -0.139812    3.783022    0.160401
  H     -1.152762    3.724560   -1.299977
  C     -1.319909    1.983856   -0.095325
  O     -2.539079    1.917846   -0.300053
  N     -0.658163    1.033822    0.632540
  C     -1.420307   -0.046878    1.252896
  H     -1.323833    0.015344    2.341478
  H     -2.468399    0.089506    0.984984
  C      0.782102    1.078945    0.916970
  H      1.098301    2.122109    1.002332
  H      0.929132    0.625350    1.903434
  C      1.650682    0.353218   -0.119515
  H      1.378314   -0.708024   -0.152338
  H      1.445373    0.762378   -1.117886
  C     -0.902777   -1.440844    0.877341
  N     -1.070688   -1.869955   -0.403036
  O     -0.340713   -2.124387    1.742312
  C     -1.640188   -1.076169   -1.485029
  H     -0.848148   -0.661838   -2.124035
  H     -2.274072   -1.723717   -2.100851
  H     -2.248268   -0.255276   -1.108726
  C     -0.458424   -3.129425   -0.811188
  H      0.437317   -2.943586   -1.420479
  H     -0.177479   -3.691688    0.077789
  H     -1.171269   -3.707812   -1.408867
  C      3.144878    0.481200    0.196562
  H      3.421755    1.544902    0.225639
  H      3.336126    0.084107    1.203852
  C      4.024661   -0.252979   -0.820065
  H      3.783808   -1.323367   -0.846638
  H      3.875298    0.147083   -1.831098
  H      5.088361   -0.154036   -0.573421

 Multiplicity           Mult            ....    1
 Number of Electrons    NEL             ....  110
 Basis Dimension        Dim             ....  236

ORBITAL ENERGIES
----------------

  NO   OCC          E(Eh)            E(eV)
   0   2.0000     -19.108080      -519.9573
   1   2.0000     -19.105852      -519.8967
   2   2.0000     -14.359519      -390.7424
   3   2.0000     -14.357927      -390.6991
   4   2.0000     -10.282366      -279.7974
   5   2.0000     -10.278249      -279.6854
   6   2.0000     -10.209983      -277.8278
   7   2.0000     -10.208816      -277.7960
   8   2.0000     -10.198744      -277.5219
   9   2.0000     -10.195835      -277.4428
  10   2.0000     -10.173494      -276.8348
  11   2.0000     -10.169270      -276.7199
  12   2.0000     -10.168736      -276.7054
  13   2.0000     -10.158932      -276.4386
  14   2.0000      -1.031219       -28.0609
  15   2.0000      -1.024399       -27.8753
  16   2.0000      -0.933063       -25.3899
  17   2.0000      -0.925006       -25.1707
  18   2.0000      -0.789791       -21.4913
  19   2.0000      -0.757414       -20.6103
  20   2.0000      -0.726025       -19.7561
  21   2.0000      -0.714323       -19.4377
  22   2.0000      -0.703805       -19.1515
  23   2.0000      -0.669923       -18.2295
  24   2.0000      -0.639585       -17.4040
  25   2.0000      -0.578926       -15.7534
  26   2.0000      -0.550685       -14.9849
  27   2.0000      -0.534727       -14.5507
  28   2.0000      -0.509014       -13.8510
  29   2.0000      -0.485925       -13.2227
  30   2.0000      -0.476531       -12.9671
  31   2.0000      -0.464114       -12.6292
  32   2.0000      -0.456580       -12.4242
  33   2.0000      -0.452344       -12.3089
  34   2.0000      -0.447060       -12.1651
  35   2.0000      -0.420631       -11.4459
  36   2.0000      -0.408116       -11.1054
  37   2.0000      -0.405611       -11.0372
  38   2.0000      -0.402224       -10.9451
  39   2.0000      -0.395864       -10.7720
  40   2.0000      -0.394873       -10.7450
  41   2.0000      -0.392921       -10.6919
  42   2.0000      -0.387600       -10.5471
  43   2.0000      -0.376093       -10.2340
  44   2.0000      -0.373191       -10.1550
  45   2.0000      -0.362778        -9.8717
  46   2.0000      -0.349327        -9.5057
  47   2.0000      -0.349061        -9.4984
  48   2.0000      -0.334742        -9.1088
  49   2.0000      -0.326946        -8.8967
  50   2.0000      -0.320062        -8.7093
  51   2.0000      -0.256750        -6.9865
  52   2.0000      -0.250973        -6.8293
  53   2.0000      -0.235917        -6.4196
  54   2.0000      -0.233984        -6.3670
  55   0.0000       0.017668         0.4808
  56   0.0000       0.029801         0.8109
  57   0.0000       0.083487         2.2718
  58   0.0000       0.101769         2.7693
  59   0.0000       0.109839         2.9889

MULLIKEN ATOMIC CHARGES
-----------------------
   0 C :   -0.563079
   1 H :    0.190953
   2 H :    0.195809
   3 H :    0.181447
   4 C :    0.529865
   5 O :   -0.534133
   6 N :   -0.369226
   7 C :   -0.252861
   8 H :    0.179620
   9 H :    0.205061
  10 C :   -0.167872
  11 H :    0.173806
  12 H :    0.172006
  13 C :   -0.270300
  14 H :    0.157983
  15 H :    0.148357
  16 C :    0.521787
  17 N :   -0.360457
  18 O :   -0.540731
  19 C :   -0.345143
  20 H :    0.168819
  21 H :    0.171418
  22 H :    0.195466
  23 C :   -0.330267
  24 H :    0.169064
  25 H :    0.186518
  26 H :    0.170437
  27 C :   -0.253532
  28 H :    0.138903
  29 H :    0.141122
  30 C :   -0.453209
  31 H :    0.148143
  32 H :    0.146746
  33 H :    0.147480
Sum of atomic charges:   -0.0000000

LOEWDIN ATOMIC CHARGES
----------------------
   0 C :   -0.392776
   1 H :    0.151627
   2 H :    0.156943
   3 H :    0.150217
   4 C :    0.114221
   5 O :   -0.336886
   6 N :   -0.068698
   7 C :   -0.179438
   8 H :    0.144601
   9 H :    0.160359
  10 C :   -0.158581
  11 H :    0.139572
  12 H :    0.139078
  13 C :   -0.243984
  14 H :    0.130041
  15 H :    0.123818
  16 C :    0.094114
  17 N :   -0.071326
  18 O :   -0.335915
  19 C :   -0.285173
  20 H :    0.130361
  21 H :    0.136303
  22 H :    0.148996
  23 C :   -0.280072
  24 H :    0.130583
  25 H :    0.147988
  26 H :    0.135701
  27 C :   -0.232989
  28 H :    0.120534
  29 H :    0.122074
  30 C :   -0.366467
  31 H :    0.124612
  32 H :    0.124056
  33 H :    0.126502

  Mayer bond orders larger than 0.100000
B(  0-C ,  1-H ) :   0.9205 B(  0-C ,  2-H ) :   0.9211 B(  0-C ,  3-H ) :   0.9388
B(  0-C ,  4-C ) :   0.9925 B(  4-C ,  5-O ) :   1.7438 B(  4-C ,  6-N ) :   1.1676
B(  6-N ,  7-C ) :   0.9537 B(  6-N , 10-C ) :   0.9252 B(  7-C ,  8-H ) :   0.9163
B(  7-C ,  9-H ) :   0.8923 B(  7-C , 16-C ) :   0.9385 B( 10-C , 11-H ) :   0.9228
B( 10-C , 12-H ) :   0.9236 B( 10-C , 13-C ) :   0.9920 B( 13-C , 14-H ) :   0.9252
B( 13-C , 15-H ) :   0.9307 B( 13-C , 27-C ) :   1.0059 B( 16-C , 17-N ) :   1.1909
B( 16-C , 18-O ) :   1.7556 B( 17-N , 18-O ) :   0.1007 B( 17-N , 19-C ) :   0.9513
B( 17-N , 23-C ) :   0.9493 B( 19-C , 20-H ) :   0.9299 B( 19-C , 21-H ) :   0.9348
B( 19-C , 22-H ) :   0.9032 B( 23-C , 24-H ) :   0.9341 B( 23-C , 25-H ) :   0.9253
B( 23-C , 26-H ) :   0.9374 B( 27-C , 28-H ) :   0.9414 B( 27-C , 29-H ) :   0.9410
B( 27-C , 30-C ) :   1.0196 B( 30-C , 31-H ) :   0.9511 B( 30-C , 32-H ) :   0.9516
B( 30-C , 33-H ) :   0.9515

Dispersion correction           -0.055266938
FINAL SINGLE POINT ENERGY      -652.739990463659

DIPOLE MOMENT
-------------
                                X             Y             Z
Electronic contribution:    -12.78245      -0.13886       6.65784
Nuclear contribution   :     14.02734       0.61759      -7.77574
                        -----------------------------------------
Total Dipole Moment    :      1.24488       0.47872      -1.11790
                        -----------------------------------------
Magnitude (a.u.)       :      1.74029
Magnitude (Debye)      :      4.42346

Dispersion correction in the Hessian             ... Starting D4

VIBRATIONAL FREQUENCIES
-----------------------

Scaling factor for frequencies =  1.000000000  (already applied!)

   0:         0.00 cm**-1
   1:         0.00 cm**-1
   2:         0.00 cm**-1
   3:         0.00 cm**-1
   4:         0.00 cm**-1
   5:         0.00 cm**-1
   6:        42.25 cm**-1
   7:        47.09 cm**-1
   8:        55.24 cm**-1
   9:        75.12 cm**-1
  10:        79.31 cm**-1
  11:        85.88 cm**-1
  12:       104.90 cm**-1
  13:       127.98 cm**-1
  14:       142.44 cm**-1
  15:       159.16 cm**-1
  16:       169.05 cm**-1
  17:       204.36 cm**-1
  18:       239.53 cm**-1
  19:       248.35 cm**-1
  20:       264.47 cm**-1
  21:       278.81 cm**-1
  22:       342.30 cm**-1
  23:       360.73 cm**-1
  24:       388.37 cm**-1
  25:       428.50 cm**-1
  26:       443.53 cm**-1
  27:       458.43 cm**-1
  28:       497.97 cm**-1
  29:       579.98 cm**-1
  30:       599.69 cm**-1
  31:       634.38 cm**-1
  32:       703.12 cm**-1
  33:       738.02 cm**-1
  34:       762.04 cm**-1
  35:       797.52 cm**-1
  36:       824.68 cm**-1
  37:       918.13 cm**-1
  38:       951.07 cm**-1
  39:       958.83 cm**-1
  40:      1003.11 cm**-1
  41:      1009.51 cm**-1
  42:      1027.90 cm**-1
  43:      1062.07 cm**-1
  44:      1067.81 cm**-1
  45:      1079.23 cm**-1
  46:      1090.88 cm**-1
  47:      1135.05 cm**-1
  48:      1138.53 cm**-1
  49:      1156.81 cm**-1
  50:      1183.51 cm**-1
  51:      1201.65 cm**-1
  52:      1233.46 cm**-1
  53:      1267.39 cm**-1
  54:      1288.27 cm**-1
  55:      1293.63 cm**-1
  56:      1309.26 cm**-1
  57:      1336.60 cm**-1
  58:      1349.10 cm**-1
  59:      1370.16 cm**-1
  60:      1399.18 cm**-1
  61:      1411.02 cm**-1
  62:      1425.25 cm**-1
  63:      1430.35 cm**-1
  64:      1440.78 cm**-1
  65:      1456.59 cm**-1
  66:      1474.93 cm**-1
  67:      1485.80 cm**-1
  68:      1490.22 cm**-1
  69:      1498.79 cm**-1
  70:      1503.39 cm**-1
  71:      1504.77 cm**-1
  72:      1512.28 cm**-1
  73:      1513.26 cm**-1
  74:      1514.83 cm**-1
  75:      1518.96 cm**-1
  76:      1527.51 cm**-1
  77:      1530.10 cm**-1
  78:      1537.28 cm**-1
  79:      1555.25 cm**-1
  80:      1706.51 cm**-1
  81:      1715.44 cm**-1
  82:      3023.40 cm**-1
  83:      3031.65 cm**-1
  84:      3035.42 cm**-1
  85:      3036.60 cm**-1
  86:      3044.09 cm**-1
  87:      3053.51 cm**-1
  88:      3063.67 cm**-1
  89:      3074.56 cm**-1
  90:      3083.30 cm**-1
  91:      3092.51 cm**-1
  92:      3096.22 cm**-1
  93:      3099.99 cm**-1
  94:      3100.77 cm**-1
  95:      3105.84 cm**-1
  96:      3127.23 cm**-1
  97:      3129.84 cm**-1
  98:      3161.85 cm**-1
  99:      3170.41 cm**-1
 100:      3190.37 cm**-1
 101:      3192.70 cm**-1

IR SPECTRUM
-----------

 Mode   freq       eps      Int      T**2         TX        TY        TZ
       cm**-1   L/(mol*cm) km/mol    a.u.
----------------------------------------------------------------------------
  6:     42.25   0.000700    3.54  0.005169  ( 0.070735 -0.003971 -0.012222)
  7:     47.09   0.000062    0.31  0.000411  (-0.001404 -0.005235  0.019535)
  8:     55.24   0.000658    3.32  0.003716  (-0.040254 -0.035605  0.028778)
  9:     75.12   0.001016    5.13  0.004220  ( 0.039942  0.037166 -0.035262)
 10:     79.31   0.000282    1.42  0.001108  ( 0.017031  0.021603 -0.018743)
 11:     85.88   0.000027    0.14  0.000099  (-0.000793 -0.004289 -0.008919)
 12:    104.90   0.002163   10.93  0.006433  ( 0.007408 -0.064608 -0.046950)
 13:    127.98   0.001101    5.57  0.002685  (-0.010478 -0.044145 -0.025038)
 14:    142.44   0.000768    3.88  0.001683  ( 0.002132  0.040340  0.007132)
 15:    159.16   0.000177    0.90  0.000347  ( 0.009173  0.005684 -0.015200)
 16:    169.05   0.000070    0.35  0.000129  (-0.003275  0.000934  0.010858)
 17:    204.36   0.000219    1.11  0.000334  (-0.015783 -0.005023  0.007728)
 18:    239.53   0.000721    3.64  0.000939  (-0.014344 -0.026522  0.005466)
 19:    248.35   0.000162    0.82  0.000204  (-0.010967 -0.009117  0.000697)
 20:    264.47   0.001318    6.66  0.001555  (-0.035435 -0.017306 -0.000046)
 21:    278.81   0.001016    5.13  0.001137  ( 0.017944  0.024512  0.014633)
 22:    342.30   0.001874    9.47  0.001709  (-0.002677  0.026967  0.031215)
 23:    360.73   0.001526    7.71  0.001320  (-0.009515  0.013159 -0.032507)
 24:    388.37   0.001782    9.01  0.001432  (-0.011348  0.017650  0.031491)
 25:    428.50   0.000821    4.15  0.000598  (-0.004205  0.022598  0.008327)
 26:    443.53   0.001444    7.30  0.001016  ( 0.010534 -0.026393 -0.014434)
 27:    458.43   0.002568   12.98  0.001748  ( 0.039890 -0.011909  0.003902)
 28:    497.97   0.004512   22.80  0.002828  (-0.032828 -0.035711  0.021786)
 29:    579.98   0.003571   18.05  0.001922  (-0.016742  0.038442  0.012787)
 30:    599.69   0.001917    9.69  0.000997  (-0.020776  0.022455  0.007847)
 31:    634.38   0.004611   23.30  0.002268  (-0.006076  0.000305 -0.047235)
 32:    703.12   0.000735    3.71  0.000326  (-0.012096 -0.001174 -0.013359)
 33:    738.02   0.002245   11.35  0.000949  (-0.003753 -0.027597  0.013179)
 34:    762.04   0.002493   12.60  0.001021  ( 0.005858  0.023265  0.021107)
 35:    797.52   0.001472    7.44  0.000576  (-0.013376 -0.013510 -0.014648)
 36:    824.68   0.003803   19.22  0.001439  ( 0.019815  0.008110  0.031315)
 37:    918.13   0.000659    3.33  0.000224  (-0.013798  0.003152  0.004857)
 38:    951.07   0.001996   10.09  0.000655  ( 0.001681  0.018693 -0.017398)
 39:    958.83   0.000598    3.02  0.000195  (-0.009837 -0.009684 -0.002029)
 40:   1003.11   0.006133   30.99  0.001908  ( 0.005076 -0.020883 -0.038025)
 41:   1009.51   0.005015   25.34  0.001550  (-0.029999  0.022064 -0.012788)
 42:   1027.90   0.004549   22.99  0.001381  (-0.022685  0.021862  0.019707)
 43:   1062.07   0.001659    8.38  0.000487  (-0.002120  0.014226  0.016750)
 44:   1067.81   0.000456    2.30  0.000133  ( 0.007822 -0.007602 -0.003770)
 45:   1079.23   0.006607   33.39  0.001910  (-0.012645  0.023022 -0.034935)
 46:   1090.88   0.001425    7.20  0.000408  ( 0.012649 -0.015733  0.000494)
 47:   1135.05   0.000614    3.10  0.000169  ( 0.000541  0.012966 -0.000622)
 48:   1138.53   0.002411   12.18  0.000661  (-0.016272 -0.001368 -0.019854)
 49:   1156.81   0.008930   45.13  0.002409  (-0.018329 -0.027065 -0.036613)
 50:   1183.51   0.002342   11.83  0.000617  ( 0.009580  0.003889  0.022596)
 51:   1201.65   0.009463   47.82  0.002457  (-0.008319  0.007647 -0.048268)
 52:   1233.46   0.003882   19.62  0.000982  (-0.023616  0.007817  0.019062)
 53:   1267.39   0.020315  102.66  0.005002  (-0.022919  0.058022 -0.033321)
 54:   1288.27   0.010584   53.49  0.002564  (-0.020848  0.037188  0.027317)
 55:   1293.63   0.022483  113.62  0.005424  (-0.000153 -0.066902  0.030786)
 56:   1309.26   0.000709    3.58  0.000169  ( 0.007990 -0.010153 -0.001419)
 57:   1336.60   0.001929    9.75  0.000450  ( 0.016567 -0.012639  0.004026)
 58:   1349.10   0.002010   10.16  0.000465  (-0.013002  0.016993 -0.002651)
 59:   1370.16   0.000523    2.64  0.000119  (-0.006718  0.000798 -0.008563)
 60:   1399.18   0.001031    5.21  0.000230  ( 0.014695 -0.001135  0.003555)
 61:   1411.02   0.004078   20.61  0.000902  ( 0.026324  0.008500 -0.011694)
 62:   1425.25   0.007210   36.44  0.001579  (-0.033940  0.018135 -0.009893)
 63:   1430.35   0.000812    4.10  0.000177  (-0.008486  0.001977 -0.010056)
 64:   1440.78   0.014152   71.52  0.003065  (-0.002726 -0.024668 -0.049491)
 65:   1456.59   0.017464   88.26  0.003742  ( 0.004233 -0.050637 -0.034052)
 66:   1474.93   0.044605  225.42  0.009438  ( 0.048465 -0.071894  0.043816)
 67:   1485.80   0.003417   17.27  0.000718  ( 0.022711  0.014051  0.002107)
 68:   1490.22   0.000729    3.68  0.000153  ( 0.008619 -0.000224 -0.008849)
 69:   1498.79   0.001460    7.38  0.000304  (-0.001062 -0.011755  0.012834)
 70:   1503.39   0.001061    5.36  0.000220  (-0.002107 -0.006406 -0.013218)
 71:   1504.77   0.005587   28.23  0.001159  ( 0.008706  0.023260 -0.023277)
 72:   1512.28   0.001902    9.61  0.000392  ( 0.008863 -0.017184  0.004306)
 73:   1513.26   0.001062    5.37  0.000219  ( 0.002119 -0.014362  0.002867)
 74:   1514.83   0.001059    5.35  0.000218  ( 0.000656  0.012066 -0.008498)
 75:   1518.96   0.002697   13.63  0.000554  (-0.018230 -0.013089 -0.007094)
 76:   1527.51   0.000912    4.61  0.000186  (-0.001515 -0.011763  0.006759)
 77:   1530.10   0.006494   32.82  0.001324  ( 0.035381  0.008510  0.000427)
 78:   1537.28   0.004125   20.85  0.000837  (-0.000824 -0.004401  0.028589)
 79:   1555.25   0.016431   83.04  0.003297  ( 0.009414 -0.037573 -0.042387)
 80:   1706.51   0.133354  673.92  0.024386  ( 0.137547 -0.032372  0.066475)
 81:   1715.44   0.086962  439.47  0.015820  ( 0.022614 -0.033060  0.119228)
 82:   3023.40   0.008304   41.97  0.000857  (-0.009066 -0.016312 -0.022558)
 83:   3031.65   0.004895   24.74  0.000504  ( 0.012157 -0.018492  0.003754)
 84:   3035.42   0.006750   34.11  0.000694  ( 0.018244 -0.012607 -0.014217)
 85:   3036.60   0.018009   91.01  0.001851  ( 0.013959 -0.004931 -0.040393)
 86:   3044.09   0.007478   37.79  0.000767  (-0.006832 -0.012071 -0.023963)
 87:   3053.51   0.006104   30.85  0.000624  ( 0.002360 -0.012475  0.021510)
 88:   3063.67   0.000634    3.21  0.000065  (-0.004281 -0.005402  0.004137)
 89:   3074.56   0.009365   47.32  0.000950  ( 0.015670  0.009771  0.024688)
 90:   3083.30   0.009132   46.15  0.000924  ( 0.001294  0.006384 -0.029696)
 91:   3092.51   0.000339    1.71  0.000034  (-0.003735  0.004483 -0.000384)
 92:   3096.22   0.014170   71.61  0.001428  ( 0.029207  0.021747  0.010109)
 93:   3099.99   0.003520   17.79  0.000354  ( 0.014997  0.009095  0.006834)
 94:   3100.77   0.022730  114.87  0.002288  (-0.003223 -0.041024  0.024377)
 95:   3105.84   0.012683   64.10  0.001274  ( 0.030397  0.009957  0.015851)
 96:   3127.23   0.011609   58.67  0.001158  (-0.004588 -0.032958  0.007155)
 97:   3129.84   0.002491   12.59  0.000248  (-0.005462 -0.003708  0.014312)
 98:   3161.85   0.001725    8.72  0.000170  ( 0.000034 -0.012191 -0.004647)
 99:   3170.41   0.002741   13.85  0.000270  (-0.012446  0.008126 -0.006991)
100:   3190.37   0.000819    4.14  0.000080  ( 0.003925  0.007758 -0.002135)
101:   3192.70   0.000714    3.61  0.000070  (-0.004550  0.005558 -0.004259)

--------------------------
THERMOCHEMISTRY AT 298.15K
--------------------------

Temperature         ... 298.15 K
Pressure            ... 1.00 atm
Total Mass          ... 200.28 AMU

Throughout the following assumptions are being made:
  (1) The electronic state is orbitally nondegenerate
  (2) There are no thermally accessible electronically excited states
  (3) Hindered rotations indicated by low frequency modes are not
      treated as such but are treated as vibrations and this may
      cause some error
  (4) All equations used are the standard statistical mechanics
      equations for an ideal gas
  (5) All vibrations are strictly harmonic

freq.      42.25  E(vib)   ...       0.53
freq.      47.09  E(vib)   ...       0.53
freq.      55.24  E(vib)   ...       0.52
freq.      75.12  E(vib)   ...       0.49
freq.      79.31  E(vib)   ...       0.49
freq.      85.88  E(vib)   ...       0.48
freq.     104.90  E(vib)   ...       0.46
freq.     127.98  E(vib)   ...       0.43
freq.     142.44  E(vib)   ...       0.41
freq.     159.16  E(vib)   ...       0.39
freq.     169.05  E(vib)   ...       0.38
freq.     204.36  E(vib)   ...       0.35
freq.     239.53  E(vib)   ...       0.31
freq.     248.35  E(vib)   ...       0.31
freq.     264.47  E(vib)   ...       0.29
freq.     278.81  E(vib)   ...       0.28
freq.     342.30  E(vib)   ...       0.23
freq.     360.73  E(vib)   ...       0.22
freq.     388.37  E(vib)   ...       0.20
freq.     428.50  E(vib)   ...       0.18
freq.     443.53  E(vib)   ...       0.17
freq.     458.43  E(vib)   ...       0.16
freq.     497.97  E(vib)   ...       0.14
freq.     579.98  E(vib)   ...       0.11
freq.     599.69  E(vib)   ...       0.10
freq.     634.38  E(vib)   ...       0.09
freq.     703.12  E(vib)   ...       0.07
freq.     738.02  E(vib)   ...       0.06
freq.     762.04  E(vib)   ...       0.06
freq.     797.52  E(vib)   ...       0.05
freq.     824.68  E(vib)   ...       0.04
freq.     918.13  E(vib)   ...       0.03
freq.     951.07  E(vib)   ...       0.03
freq.     958.83  E(vib)   ...       0.03
freq.    1003.11  E(vib)   ...       0.02
freq.    1009.51  E(vib)   ...       0.02
freq.    1027.90  E(vib)   ...       0.02
freq.    1062.07  E(vib)   ...       0.02
freq.    1067.81  E(vib)   ...       0.02
freq.    1079.23  E(vib)   ...       0.02
freq.    1090.88  E(vib)   ...       0.02
freq.    1135.05  E(vib)   ...       0.01
freq.    1138.53  E(vib)   ...       0.01
freq.    1156.81  E(vib)   ...       0.01
freq.    1183.51  E(vib)   ...       0.01
freq.    1201.65  E(vib)   ...       0.01
freq.    1233.46  E(vib)   ...       0.01
freq.    1267.39  E(vib)   ...       0.01
freq.    1288.27  E(vib)   ...       0.01
freq.    1293.63  E(vib)   ...       0.01
freq.    1309.26  E(vib)   ...       0.01
freq.    1336.60  E(vib)   ...       0.01
freq.    1349.10  E(vib)   ...       0.01
freq.    1370.16  E(vib)   ...       0.01
freq.    1399.18  E(vib)   ...       0.00
freq.    1411.02  E(vib)   ...       0.00
freq.    1425.25  E(vib)   ...       0.00
freq.    1430.35  E(vib)   ...       0.00
freq.    1440.78  E(vib)   ...       0.00
freq.    1456.59  E(vib)   ...       0.00
freq.    1474.93  E(vib)   ...       0.00
freq.    1485.80  E(vib)   ...       0.00
freq.    1490.22  E(vib)   ...       0.00
freq.    1498.79  E(vib)   ...       0.00
freq.    1503.39  E(vib)   ...       0.00
freq.    1504.77  E(vib)   ...       0.00
freq.    1512.28  E(vib)   ...       0.00
freq.    1513.26  E(vib)   ...       0.00
freq.    1514.83  E(vib)   ...       0.00
freq.    1518.96  E(vib)   ...       0.00
freq.    1527.51  E(vib)   ...       0.00
freq.    1530.10  E(vib)   ...       0.00
freq.    1537.28  E(vib)   ...       0.00
freq.    1555.25  E(vib)   ...       0.00
freq.    1706.51  E(vib)   ...       0.00
freq.    1715.44  E(vib)   ...       0.00
freq.    3023.40  E(vib)   ...       0.00
freq.    3031.65  E(vib)   ...       0.00
freq.    3035.42  E(vib)   ...       0.00
freq.    3036.60  E(vib)   ...       0.00
freq.    3044.09  E(vib)   ...       0.00
freq.    3053.51  E(vib)   ...       0.00
freq.    3063.67  E(vib)   ...       0.00
freq.    3074.56  E(vib)   ...       0.00
freq.    3083.30  E(vib)   ...       0.00
freq.    3092.51  E(vib)   ...       0.00
freq.    3096.22  E(vib)   ...       0.00
freq.    3099.99  E(vib)   ...       0.00
freq.    3100.77  E(vib)   ...       0.00
freq.    3105.84  E(vib)   ...       0.00
freq.    3127.23  E(vib)   ...       0.00
freq.    3129.84  E(vib)   ...       0.00
freq.    3161.85  E(vib)   ...       0.00
freq.    3170.41  E(vib)   ...       0.00
freq.    3190.37  E(vib)   ...       0.00
freq.    3192.70  E(vib)   ...       0.00

------------
INNER ENERGY
------------

The inner energy is: U= E(el) + E(ZPE) + E(vib) + E(rot) + E(trans)
    E(el)   - is the total energy from the electronic structure calculation
              = E(kin-el) + E(nuc-el) + E(el-el) + E(nuc-nuc)
    E(ZPE)  - the the zero temperature vibrational energy from the frequency calculation
    E(vib)  - the the finite temperature correction to E(ZPE) due to population
              of excited vibrational states
    E(rot)  - is the rotational thermal energy
    E(trans)- is the translational thermal energy

Summary of contributions to the inner energy U:
Electronic energy                ...   -652.73999046 Eh
Zero point energy                ...      0.30158745 Eh     189.25 kcal/mol
Thermal vibrational correction   ...      0.01424547 Eh       8.94 kcal/mol
Thermal rotational correction    ...      0.00141627 Eh       0.89 kcal/mol
Thermal translational correction ...      0.00141627 Eh       0.89 kcal/mol
-----------------------------------------------------------------------
Total thermal energy                   -652.42132500 Eh

Summary of corrections to the electronic energy:
(perhaps to be used in another calculation)
Total thermal correction                  0.01707801 Eh      10.72 kcal/mol
Non-thermal (ZPE) correction              0.30158745 Eh     189.25 kcal/mol
-----------------------------------------------------------------------
Total correction                          0.31866546 Eh     199.97 kcal/mol

--------
ENTHALPY
--------

The enthalpy is H = U + kB*T
                kB is Boltzmann's constant
Total free energy                 ...   -652.42132500 Eh
Thermal Enthalpy correction       ...      0.00094421 Eh       0.59 kcal/mol
-----------------------------------------------------------------------
Total Enthalpy                    ...   -652.42038079 Eh

Note: Only C1 symmetry has been detected, increase convergence thresholds
      if your molecule has a higher symmetry. Symmetry factor of 1.0 is
      used for the rotational entropy correction.

Rotational constants in cm-1:     0.021089     0.019594     0.012944

                             ****ORCA TERMINATED NORMALLY****
TOTAL RUN TIME: 0 days 0 hours 22 minutes 47 seconds 721 msec
