                         Program Version 5.0.4 -  RELEASE  -
|  1> ! OPT FREQ B3LYP 6-31G(d) D4 AUTOAUX
|  2> ! CPCM
|  3>
|  4> %cpcm
|  5> epsilon 9.8629
|  6> refrac  1.4295
|  7> end
|  8>
|  9> %PAL NPROCS 4 END
| 10>
| 11> %maxcore 3375
| 12>
| 13> *xyzfile 0 1 /users/fjb15167/WWenergy/structures/Ni.xyz
| 14>
| 15>                          ****END OF INPUT****
 Total Charge           Charge          ....    0
 Multiplicity           Mult            ....    1
 Number of Electrons    NEL             ....  110
Dispersion correction           -0.058217458
FINAL SINGLE POINT ENERGY      -652.735887207586
Dispersion correction            ... Starting D4
Dispersion correction           -0.057726057
FINAL SINGLE POINT ENERGY      -652.736313552542
Dispersion correction            ... Starting D4
Dispersion correction           -0.057900262
FINAL SINGLE POINT ENERGY      -652.736432727437
Dispersion correction            ... Starting D4
FINAL SINGLE POINT ENERGY      -652.736488656941
FINAL SINGLE POINT ENERGY      -652.736500645633
FINAL SINGLE POINT ENERGY      -652.736524336440
FINAL SINGLE POINT ENERGY      -652.736539546830
FINAL SINGLE POINT ENERGY      -652.736552016651
FINAL SINGLE POINT ENERGY      -652.736559877649
FINAL SINGLE POINT ENERGY      -652.736565376563
FINAL SINGLE POINT ENERGY      -652.736571478391
Dispersion correction           -0.058014916
FINAL SINGLE POINT ENERGY      -652.736580155533
Dispersion correction            ... Starting D4
Dispersion correction           -0.058024360
FINAL SINGLE POINT ENERGY      -652.736584214382
Dispersion correction            ... Starting D4
                    ***********************HURRAY********************

CARTESIAN COORDINATES (ANGSTROEM)
---------------------------------
  C     -2.573472   -1.484810   -0.915961
  H     -2.582716   -0.578948   -1.521597
  H     -3.466086   -1.479694   -0.280027
  H     -2.628855   -2.358210   -1.569162
  C     -1.337525   -1.645963   -0.050497
  O     -0.894322   -2.786268    0.153608
  N     -0.744728   -0.542671    0.499476
  C      0.399032   -0.754440    1.390804
  H      0.149804   -0.401750    2.396285
  H      0.596823   -1.825058    1.435543
  C      1.635361    0.049856    0.968151
  N      2.267162   -0.294937   -0.185782
  O      2.006015    0.996481    1.675359
  C      1.872767   -1.384915   -1.069517
  H      1.377975   -0.994106   -1.969061
  H      2.771090   -1.930099   -1.381221
  H      1.198977   -2.082933   -0.576328
  C      3.360353    0.534961   -0.678743
  H      3.093296    0.969190   -1.650908
  H      3.549642    1.331742    0.038526
  H      4.265494   -0.070941   -0.806354
  C     -1.181266    0.875702    0.381498
  H     -0.548934    1.393373    1.109385
  C     -0.832506    1.481896   -0.992398
  H      0.193066    1.187596   -1.243924
  H     -1.478474    1.063294   -1.772830
  C     -0.939645    3.010748   -1.009168
  H     -0.606585    3.408969   -1.974203
  H     -1.969435    3.348835   -0.848395
  H     -0.312098    3.456666   -0.227002
  C     -2.629251    1.114281    0.830159
  H     -2.774626    2.179809    1.034248
  H     -3.362736    0.819771    0.075325
  H     -2.838601    0.563572    1.753710

 Multiplicity           Mult            ....    1
 Number of Electrons    NEL             ....  110
 Basis Dimension        Dim             ....  236

ORBITAL ENERGIES
----------------

  NO   OCC          E(Eh)            E(eV)
   0   2.0000     -19.105982      -519.9002
   1   2.0000     -19.105563      -519.8888
   2   2.0000     -14.358684      -390.7197
   3   2.0000     -14.357707      -390.6931
   4   2.0000     -10.281665      -279.7783
   5   2.0000     -10.278595      -279.6948
   6   2.0000     -10.217829      -278.0413
   7   2.0000     -10.208552      -277.7888
   8   2.0000     -10.198754      -277.5222
   9   2.0000     -10.195832      -277.4427
  10   2.0000     -10.171708      -276.7862
  11   2.0000     -10.171497      -276.7805
  12   2.0000     -10.164032      -276.5774
  13   2.0000     -10.161405      -276.5059
  14   2.0000      -1.030099       -28.0304
  15   2.0000      -1.023438       -27.8492
  16   2.0000      -0.931133       -25.3374
  17   2.0000      -0.924237       -25.1498
  18   2.0000      -0.790340       -21.5062
  19   2.0000      -0.752816       -20.4852
  20   2.0000      -0.721946       -19.6452
  21   2.0000      -0.715436       -19.4680
  22   2.0000      -0.705144       -19.1879
  23   2.0000      -0.670428       -18.2433
  24   2.0000      -0.649295       -17.6682
  25   2.0000      -0.595594       -16.2069
  26   2.0000      -0.542507       -14.7624
  27   2.0000      -0.525139       -14.2898
  28   2.0000      -0.502612       -13.6768
  29   2.0000      -0.488852       -13.3023
  30   2.0000      -0.478725       -13.0268
  31   2.0000      -0.461622       -12.5614
  32   2.0000      -0.455944       -12.4069
  33   2.0000      -0.448273       -12.1981
  34   2.0000      -0.440947       -11.9988
  35   2.0000      -0.425772       -11.5858
  36   2.0000      -0.410701       -11.1757
  37   2.0000      -0.406485       -11.0610
  38   2.0000      -0.399363       -10.8672
  39   2.0000      -0.395480       -10.7615
  40   2.0000      -0.393941       -10.7197
  41   2.0000      -0.388908       -10.5827
  42   2.0000      -0.382511       -10.4087
  43   2.0000      -0.380557       -10.3555
  44   2.0000      -0.373327       -10.1587
  45   2.0000      -0.365673        -9.9505
  46   2.0000      -0.359128        -9.7724
  47   2.0000      -0.345257        -9.3949
  48   2.0000      -0.339938        -9.2502
  49   2.0000      -0.327899        -8.9226
  50   2.0000      -0.322729        -8.7819
  51   2.0000      -0.256126        -6.9696
  52   2.0000      -0.249045        -6.7769
  53   2.0000      -0.236811        -6.4440
  54   2.0000      -0.233214        -6.3461
  55   0.0000       0.016849         0.4585
  56   0.0000       0.030449         0.8286
  57   0.0000       0.081390         2.2147
  58   0.0000       0.103344         2.8121
  59   0.0000       0.112622         3.0646

MULLIKEN ATOMIC CHARGES
-----------------------
   0 C :   -0.556538
   1 H :    0.184361
   2 H :    0.197030
   3 H :    0.180582
   4 C :    0.533437
   5 O :   -0.539902
   6 N :   -0.383751
   7 C :   -0.259109
   8 H :    0.180673
   9 H :    0.206942
  10 C :    0.522650
  11 N :   -0.358143
  12 O :   -0.538521
  13 C :   -0.346371
  14 H :    0.168464
  15 H :    0.171150
  16 H :    0.196681
  17 C :   -0.331334
  18 H :    0.169481
  19 H :    0.187151
  20 H :    0.170854
  21 C :    0.023787
  22 H :    0.166070
  23 C :   -0.270622
  24 H :    0.157074
  25 H :    0.152504
  26 C :   -0.463567
  27 H :    0.153061
  28 H :    0.156530
  29 H :    0.153494
  30 C :   -0.474101
  31 H :    0.166095
  32 H :    0.162528
  33 H :    0.161359
Sum of atomic charges:    0.0000000

LOEWDIN ATOMIC CHARGES
----------------------
   0 C :   -0.391731
   1 H :    0.144671
   2 H :    0.159506
   3 H :    0.150731
   4 C :    0.116323
   5 O :   -0.342220
   6 N :   -0.068214
   7 C :   -0.180871
   8 H :    0.144169
   9 H :    0.160733
  10 C :    0.094239
  11 N :   -0.068914
  12 O :   -0.337187
  13 C :   -0.285462
  14 H :    0.130497
  15 H :    0.135945
  16 H :    0.149662
  17 C :   -0.279953
  18 H :    0.132566
  19 H :    0.148491
  20 H :    0.134343
  21 C :   -0.058191
  22 H :    0.142196
  23 C :   -0.240115
  24 H :    0.130589
  25 H :    0.125576
  26 C :   -0.368395
  27 H :    0.130766
  28 H :    0.127673
  29 H :    0.127542
  30 C :   -0.370875
  31 H :    0.138151
  32 H :    0.132389
  33 H :    0.135370

  Mayer bond orders larger than 0.100000
B(  0-C ,  1-H ) :   0.9134 B(  0-C ,  2-H ) :   0.9219 B(  0-C ,  3-H ) :   0.9366
B(  0-C ,  4-C ) :   0.9933 B(  4-C ,  5-O ) :   1.7206 B(  4-C ,  6-N ) :   1.1738
B(  6-N ,  7-C ) :   0.9497 B(  6-N , 21-C ) :   0.8962 B(  7-C ,  8-H ) :   0.9166
B(  7-C ,  9-H ) :   0.8895 B(  7-C , 10-C ) :   0.9371 B( 10-C , 11-N ) :   1.1953
B( 10-C , 12-O ) :   1.7496 B( 11-N , 12-O ) :   0.1010 B( 11-N , 13-C ) :   0.9517
B( 11-N , 17-C ) :   0.9478 B( 13-C , 14-H ) :   0.9300 B( 13-C , 15-H ) :   0.9347
B( 13-C , 16-H ) :   0.9022 B( 17-C , 18-H ) :   0.9359 B( 17-C , 19-H ) :   0.9238
B( 17-C , 20-H ) :   0.9373 B( 21-C , 22-H ) :   0.9121 B( 21-C , 23-C ) :   0.9921
B( 21-C , 30-C ) :   1.0075 B( 23-C , 24-H ) :   0.9300 B( 23-C , 25-H ) :   0.9256
B( 23-C , 26-C ) :   1.0118 B( 26-C , 27-H ) :   0.9493 B( 26-C , 28-H ) :   0.9472
B( 26-C , 29-H ) :   0.9487 B( 30-C , 31-H ) :   0.9382 B( 30-C , 32-H ) :   0.9383
B( 30-C , 33-H ) :   0.9435

Dispersion correction           -0.058023170
FINAL SINGLE POINT ENERGY      -652.736586357287

DIPOLE MOMENT
-------------
                                X             Y             Z
Electronic contribution:      5.03463      -7.78062       7.11596
Nuclear contribution   :     -5.66910       8.48131      -8.56885
                        -----------------------------------------
Total Dipole Moment    :     -0.63447       0.70069      -1.45288
                        -----------------------------------------
Magnitude (a.u.)       :      1.73332
Magnitude (Debye)      :      4.40575

Dispersion correction in the Hessian             ... Starting D4

VIBRATIONAL FREQUENCIES
-----------------------

Scaling factor for frequencies =  1.000000000  (already applied!)

   0:         0.00 cm**-1
   1:         0.00 cm**-1
   2:         0.00 cm**-1
   3:         0.00 cm**-1
   4:         0.00 cm**-1
   5:         0.00 cm**-1
   6:        41.42 cm**-1
   7:        47.88 cm**-1
   8:        63.34 cm**-1
   9:        76.46 cm**-1
  10:        87.31 cm**-1
  11:        97.93 cm**-1
  12:       109.03 cm**-1
  13:       141.44 cm**-1
  14:       163.56 cm**-1
  15:       187.25 cm**-1
  16:       202.70 cm**-1
  17:       217.03 cm**-1
  18:       239.83 cm**-1
  19:       266.68 cm**-1
  20:       270.36 cm**-1
  21:       284.81 cm**-1
  22:       313.26 cm**-1
  23:       345.69 cm**-1
  24:       378.05 cm**-1
  25:       397.31 cm**-1
  26:       424.62 cm**-1
  27:       441.54 cm**-1
  28:       478.84 cm**-1
  29:       537.28 cm**-1
  30:       582.92 cm**-1
  31:       610.72 cm**-1
  32:       642.54 cm**-1
  33:       703.73 cm**-1
  34:       746.43 cm**-1
  35:       782.96 cm**-1
  36:       795.00 cm**-1
  37:       864.81 cm**-1
  38:       943.97 cm**-1
  39:       984.70 cm**-1
  40:       996.48 cm**-1
  41:      1006.84 cm**-1
  42:      1015.45 cm**-1
  43:      1041.41 cm**-1
  44:      1064.16 cm**-1
  45:      1074.41 cm**-1
  46:      1091.74 cm**-1
  47:      1137.43 cm**-1
  48:      1143.42 cm**-1
  49:      1154.34 cm**-1
  50:      1167.36 cm**-1
  51:      1184.28 cm**-1
  52:      1200.73 cm**-1
  53:      1228.67 cm**-1
  54:      1273.52 cm**-1
  55:      1287.03 cm**-1
  56:      1311.47 cm**-1
  57:      1356.82 cm**-1
  58:      1367.18 cm**-1
  59:      1381.68 cm**-1
  60:      1398.79 cm**-1
  61:      1418.89 cm**-1
  62:      1429.87 cm**-1
  63:      1436.05 cm**-1
  64:      1441.20 cm**-1
  65:      1458.98 cm**-1
  66:      1486.34 cm**-1
  67:      1490.47 cm**-1
  68:      1500.89 cm**-1
  69:      1501.61 cm**-1
  70:      1507.56 cm**-1
  71:      1509.54 cm**-1
  72:      1513.50 cm**-1
  73:      1515.65 cm**-1
  74:      1521.17 cm**-1
  75:      1524.94 cm**-1
  76:      1527.73 cm**-1
  77:      1532.00 cm**-1
  78:      1539.97 cm**-1
  79:      1557.36 cm**-1
  80:      1690.36 cm**-1
  81:      1710.61 cm**-1
  82:      3035.27 cm**-1
  83:      3042.75 cm**-1
  84:      3043.31 cm**-1
  85:      3060.16 cm**-1
  86:      3064.11 cm**-1
  87:      3075.84 cm**-1
  88:      3079.68 cm**-1
  89:      3087.74 cm**-1
  90:      3091.89 cm**-1
  91:      3094.97 cm**-1
  92:      3095.38 cm**-1
  93:      3111.11 cm**-1
  94:      3118.58 cm**-1
  95:      3129.04 cm**-1
  96:      3146.44 cm**-1
  97:      3149.09 cm**-1
  98:      3167.44 cm**-1
  99:      3189.28 cm**-1
 100:      3193.80 cm**-1
 101:      3195.70 cm**-1

IR SPECTRUM
-----------

 Mode   freq       eps      Int      T**2         TX        TY        TZ
       cm**-1   L/(mol*cm) km/mol    a.u.
----------------------------------------------------------------------------
  6:     41.42   0.000416    2.10  0.003138  (-0.035011  0.036896 -0.023468)
  7:     47.88   0.000869    4.39  0.005663  (-0.014470  0.048072 -0.056056)
  8:     63.34   0.000437    2.21  0.002154  ( 0.028420 -0.011517  0.034832)
  9:     76.46   0.000491    2.48  0.002002  ( 0.030921 -0.000631  0.032335)
 10:     87.31   0.000218    1.10  0.000781  ( 0.012094 -0.004823  0.024720)
 11:     97.93   0.000201    1.02  0.000641  (-0.025230  0.001583  0.001351)
 12:    109.03   0.002976   15.04  0.008519  ( 0.079008  0.008727 -0.046913)
 13:    141.44   0.000810    4.09  0.001786  ( 0.040334 -0.012618  0.000329)
 14:    163.56   0.000045    0.23  0.000086  (-0.007883  0.000326 -0.004877)
 15:    187.25   0.000224    1.13  0.000373  ( 0.018224  0.002952 -0.005671)
 16:    202.70   0.000128    0.65  0.000197  ( 0.010835  0.008916  0.000323)
 17:    217.03   0.000575    2.91  0.000827  ( 0.005693 -0.014423  0.024219)
 18:    239.83   0.000765    3.87  0.000995  (-0.027549  0.001019 -0.015344)
 19:    266.68   0.000285    1.44  0.000333  (-0.004534 -0.015523  0.008474)
 20:    270.36   0.001877    9.48  0.002166  ( 0.042242 -0.019370  0.002536)
 21:    284.81   0.000300    1.51  0.000328  ( 0.011174  0.013972 -0.002854)
 22:    313.26   0.000571    2.89  0.000569  ( 0.015650 -0.009373  0.015370)
 23:    345.69   0.001807    9.13  0.001631  ( 0.031188 -0.001755 -0.025607)
 24:    378.05   0.002224   11.24  0.001836  ( 0.009299 -0.031257 -0.027788)
 25:    397.31   0.001663    8.40  0.001306  ( 0.006870  0.025551 -0.024613)
 26:    424.62   0.001626    8.22  0.001195  (-0.033305  0.000183  0.009265)
 27:    441.54   0.001653    8.35  0.001168  ( 0.018166  0.024531 -0.015385)
 28:    478.84   0.001233    6.23  0.000804  ( 0.019372  0.017763  0.010621)
 29:    537.28   0.004703   23.77  0.002732  (-0.037580 -0.000372 -0.036321)
 30:    582.92   0.003820   19.30  0.002045  (-0.030903 -0.027870  0.017696)
 31:    610.72   0.001849    9.34  0.000945  (-0.000329 -0.017363  0.025361)
 32:    642.54   0.005261   26.59  0.002555  (-0.024261  0.026089  0.035857)
 33:    703.73   0.001053    5.32  0.000467  ( 0.012851  0.008347  0.015229)
 34:    746.43   0.000262    1.33  0.000110  ( 0.005563  0.007812 -0.004202)
 35:    782.96   0.005811   29.37  0.002316  (-0.039426  0.011518  0.025079)
 36:    795.00   0.001301    6.57  0.000511  (-0.007407  0.015340  0.014845)
 37:    864.81   0.000660    3.34  0.000238  ( 0.004563 -0.013337 -0.006285)
 38:    943.97   0.000733    3.71  0.000242  (-0.007205 -0.007557  0.011550)
 39:    984.70   0.004214   21.29  0.001335  ( 0.016794 -0.006833 -0.031727)
 40:    996.48   0.002957   14.95  0.000926  ( 0.020287  0.003485 -0.022415)
 41:   1006.84   0.002663   13.46  0.000825  ( 0.018125 -0.003412 -0.022030)
 42:   1015.45   0.004930   24.92  0.001515  ( 0.002805  0.038787  0.001702)
 43:   1041.41   0.002617   13.22  0.000784  ( 0.002901  0.020969 -0.018329)
 44:   1064.16   0.002749   13.89  0.000806  ( 0.021916  0.004996 -0.017347)
 45:   1074.41   0.004426   22.37  0.001285  ( 0.003774  0.008955  0.034511)
 46:   1091.74   0.001763    8.91  0.000504  (-0.010726 -0.019680  0.001260)
 47:   1137.43   0.000142    0.72  0.000039  (-0.003693  0.001497 -0.004818)
 48:   1143.42   0.009337   47.19  0.002548  (-0.009445  0.046562  0.017064)
 49:   1154.34   0.007309   36.94  0.001976  (-0.039164  0.012953  0.016560)
 50:   1167.36   0.002570   12.99  0.000687  (-0.017192  0.000574  0.019777)
 51:   1184.28   0.001429    7.22  0.000377  (-0.006444  0.012348  0.013516)
 52:   1200.73   0.010480   52.96  0.002724  (-0.007456  0.018728  0.048140)
 53:   1228.67   0.006261   31.64  0.001590  (-0.003115  0.028628 -0.027584)
 54:   1273.52   0.030973  156.52  0.007590  (-0.059386 -0.043992 -0.046126)
 55:   1287.03   0.019576   98.93  0.004747  ( 0.056144  0.037031 -0.014939)
 56:   1311.47   0.001903    9.62  0.000453  (-0.013611  0.011277 -0.011847)
 57:   1356.82   0.006680   33.76  0.001536  (-0.022310 -0.032168 -0.001938)
 58:   1367.18   0.002019   10.20  0.000461  (-0.004415  0.020050  0.006272)
 59:   1381.68   0.013902   70.25  0.003140  ( 0.018277  0.051889  0.010649)
 60:   1398.79   0.007665   38.73  0.001710  (-0.019450 -0.036346 -0.003260)
 61:   1418.89   0.007776   39.30  0.001710  (-0.030899 -0.020653 -0.018135)
 62:   1429.87   0.000432    2.18  0.000094  (-0.006843  0.003964  0.005638)
 63:   1436.05   0.001657    8.37  0.000360  ( 0.000480 -0.017772 -0.006635)
 64:   1441.20   0.014696   74.27  0.003182  (-0.019738  0.027589  0.045072)
 65:   1458.98   0.017234   87.10  0.003686  (-0.043815  0.001787  0.041992)
 66:   1486.34   0.013504   68.24  0.002835  ( 0.011580  0.051972  0.000045)
 67:   1490.47   0.002219   11.21  0.000465  (-0.019132 -0.009927 -0.000023)
 68:   1500.89   0.001404    7.10  0.000292  ( 0.015929  0.004567 -0.004167)
 69:   1501.61   0.000752    3.80  0.000156  (-0.010311 -0.001492 -0.006908)
 70:   1507.56   0.000079    0.40  0.000016  ( 0.003920 -0.000988 -0.000286)
 71:   1509.54   0.001011    5.11  0.000209  (-0.006896 -0.011643  0.005092)
 72:   1513.50   0.000366    1.85  0.000075  (-0.008334 -0.001328 -0.002055)
 73:   1515.65   0.011536   58.30  0.002375  ( 0.039323  0.014412  0.024925)
 74:   1521.17   0.003405   17.21  0.000698  (-0.024452  0.004388 -0.009017)
 75:   1524.94   0.006714   33.93  0.001374  (-0.004162  0.029257  0.022377)
 76:   1527.73   0.002059   10.40  0.000420  (-0.004184 -0.003285  0.019804)
 77:   1532.00   0.005136   25.95  0.001046  (-0.008029  0.029373 -0.010904)
 78:   1539.97   0.010542   53.27  0.002136  ( 0.031371  0.018737  0.028301)
 79:   1557.36   0.015521   78.44  0.003110  (-0.036997 -0.010379  0.040418)
 80:   1690.36   0.117814  595.38  0.021750  (-0.023335  0.144864  0.014833)
 81:   1710.61   0.101128  511.06  0.018449  ( 0.003607  0.076408  0.112238)
 82:   3035.27   0.007410   37.45  0.000762  (-0.008237 -0.014799 -0.021795)
 83:   3042.75   0.016701   84.40  0.001713  ( 0.021043 -0.001467 -0.035607)
 84:   3043.31   0.007353   37.16  0.000754  ( 0.006135  0.026150 -0.005703)
 85:   3060.16   0.007781   39.32  0.000793  (-0.009580  0.017205  0.020141)
 86:   3064.11   0.002203   11.13  0.000224  ( 0.014286 -0.000864 -0.004416)
 87:   3075.84   0.000968    4.89  0.000098  (-0.008809 -0.003707 -0.002619)
 88:   3079.68   0.001103    5.57  0.000112  (-0.006961  0.007877  0.001119)
 89:   3087.74   0.006802   34.38  0.000687  ( 0.000844  0.007188  0.025201)
 90:   3091.89   0.017345   87.66  0.001751  ( 0.032447 -0.025034  0.008432)
 91:   3094.97   0.001479    7.47  0.000149  (-0.010390 -0.005406 -0.003453)
 92:   3095.38   0.000554    2.80  0.000056  ( 0.002882 -0.002081  0.006571)
 93:   3111.11   0.013797   69.73  0.001384  ( 0.016937  0.001642  0.033082)
 94:   3118.58   0.016198   81.86  0.001621  (-0.037954 -0.009973  0.008992)
 95:   3129.04   0.007049   35.62  0.000703  (-0.010682  0.023134 -0.007331)
 96:   3146.44   0.009433   47.67  0.000936  ( 0.010022  0.013535  0.025534)
 97:   3149.09   0.001345    6.80  0.000133  (-0.008863 -0.004248 -0.006055)
 98:   3167.44   0.001916    9.68  0.000189  ( 0.013143  0.003132 -0.002501)
 99:   3189.28   0.002974   15.03  0.000291  ( 0.004750 -0.014738  0.007160)
100:   3193.80   0.001061    5.36  0.000104  ( 0.008541  0.004710  0.002916)
101:   3195.70   0.000577    2.91  0.000056  (-0.004680  0.005851 -0.000427)

--------------------------
THERMOCHEMISTRY AT 298.15K
--------------------------

Temperature         ... 298.15 K
Pressure            ... 1.00 atm
Total Mass          ... 200.28 AMU

Throughout the following assumptions are being made:
  (1) The electronic state is orbitally nondegenerate
  (2) There are no thermally accessible electronically excited states
  (3) Hindered rotations indicated by low frequency modes are not
      treated as such but are treated as vibrations and this may
      cause some error
  (4) All equations used are the standard statistical mechanics
      equations for an ideal gas
  (5) All vibrations are strictly harmonic

freq.      41.42  E(vib)   ...       0.54
freq.      47.88  E(vib)   ...       0.53
freq.      63.34  E(vib)   ...       0.51
freq.      76.46  E(vib)   ...       0.49
freq.      87.31  E(vib)   ...       0.48
freq.      97.93  E(vib)   ...       0.46
freq.     109.03  E(vib)   ...       0.45
freq.     141.44  E(vib)   ...       0.41
freq.     163.56  E(vib)   ...       0.39
freq.     187.25  E(vib)   ...       0.36
freq.     202.70  E(vib)   ...       0.35
freq.     217.03  E(vib)   ...       0.34
freq.     239.83  E(vib)   ...       0.31
freq.     266.68  E(vib)   ...       0.29
freq.     270.36  E(vib)   ...       0.29
freq.     284.81  E(vib)   ...       0.28
freq.     313.26  E(vib)   ...       0.25
freq.     345.69  E(vib)   ...       0.23
freq.     378.05  E(vib)   ...       0.21
freq.     397.31  E(vib)   ...       0.20
freq.     424.62  E(vib)   ...       0.18
freq.     441.54  E(vib)   ...       0.17
freq.     478.84  E(vib)   ...       0.15
freq.     537.28  E(vib)   ...       0.12
freq.     582.92  E(vib)   ...       0.11
freq.     610.72  E(vib)   ...       0.10
freq.     642.54  E(vib)   ...       0.09
freq.     703.73  E(vib)   ...       0.07
freq.     746.43  E(vib)   ...       0.06
freq.     782.96  E(vib)   ...       0.05
freq.     795.00  E(vib)   ...       0.05
freq.     864.81  E(vib)   ...       0.04
freq.     943.97  E(vib)   ...       0.03
freq.     984.70  E(vib)   ...       0.02
freq.     996.48  E(vib)   ...       0.02
freq.    1006.84  E(vib)   ...       0.02
freq.    1015.45  E(vib)   ...       0.02
freq.    1041.41  E(vib)   ...       0.02
freq.    1064.16  E(vib)   ...       0.02
freq.    1074.41  E(vib)   ...       0.02
freq.    1091.74  E(vib)   ...       0.02
freq.    1137.43  E(vib)   ...       0.01
freq.    1143.42  E(vib)   ...       0.01
freq.    1154.34  E(vib)   ...       0.01
freq.    1167.36  E(vib)   ...       0.01
freq.    1184.28  E(vib)   ...       0.01
freq.    1200.73  E(vib)   ...       0.01
freq.    1228.67  E(vib)   ...       0.01
freq.    1273.52  E(vib)   ...       0.01
freq.    1287.03  E(vib)   ...       0.01
freq.    1311.47  E(vib)   ...       0.01
freq.    1356.82  E(vib)   ...       0.01
freq.    1367.18  E(vib)   ...       0.01
freq.    1381.68  E(vib)   ...       0.01
freq.    1398.79  E(vib)   ...       0.00
freq.    1418.89  E(vib)   ...       0.00
freq.    1429.87  E(vib)   ...       0.00
freq.    1436.05  E(vib)   ...       0.00
freq.    1441.20  E(vib)   ...       0.00
freq.    1458.98  E(vib)   ...       0.00
freq.    1486.34  E(vib)   ...       0.00
freq.    1490.47  E(vib)   ...       0.00
freq.    1500.89  E(vib)   ...       0.00
freq.    1501.61  E(vib)   ...       0.00
freq.    1507.56  E(vib)   ...       0.00
freq.    1509.54  E(vib)   ...       0.00
freq.    1513.50  E(vib)   ...       0.00
freq.    1515.65  E(vib)   ...       0.00
freq.    1521.17  E(vib)   ...       0.00
freq.    1524.94  E(vib)   ...       0.00
freq.    1527.73  E(vib)   ...       0.00
freq.    1532.00  E(vib)   ...       0.00
freq.    1539.97  E(vib)   ...       0.00
freq.    1557.36  E(vib)   ...       0.00
freq.    1690.36  E(vib)   ...       0.00
freq.    1710.61  E(vib)   ...       0.00
freq.    3035.27  E(vib)   ...       0.00
freq.    3042.75  E(vib)   ...       0.00
freq.    3043.31  E(vib)   ...       0.00
freq.    3060.16  E(vib)   ...       0.00
freq.    3064.11  E(vib)   ...       0.00
freq.    3075.84  E(vib)   ...       0.00
freq.    3079.68  E(vib)   ...       0.00
freq.    3087.74  E(vib)   ...       0.00
freq.    3091.89  E(vib)   ...       0.00
freq.    3094.97  E(vib)   ...       0.00
freq.    3095.38  E(vib)   ...       0.00
freq.    3111.11  E(vib)   ...       0.00
freq.    3118.58  E(vib)   ...       0.00
freq.    3129.04  E(vib)   ...       0.00
freq.    3146.44  E(vib)   ...       0.00
freq.    3149.09  E(vib)   ...       0.00
freq.    3167.44  E(vib)   ...       0.00
freq.    3189.28  E(vib)   ...       0.00
freq.    3193.80  E(vib)   ...       0.00
freq.    3195.70  E(vib)   ...       0.00

------------
INNER ENERGY
------------

The inner energy is: U= E(el) + E(ZPE) + E(vib) + E(rot) + E(trans)
    E(el)   - is the total energy from the electronic structure calculation
              = E(kin-el) + E(nuc-el) + E(el-el) + E(nuc-nuc)
    E(ZPE)  - the the zero temperature vibrational energy from the frequency calculation
    E(vib)  - the the finite temperature correction to E(ZPE) due to population
              of excited vibrational states
    E(rot)  - is the rotational thermal energy
    E(trans)- is the translational thermal energy

Summary of contributions to the inner energy U:
Electronic energy                ...   -652.73658636 Eh
Zero point energy                ...      0.30149463 Eh     189.19 kcal/mol
Thermal vibrational correction   ...      0.01421676 Eh       8.92 kcal/mol
Thermal rotational correction    ...      0.00141627 Eh       0.89 kcal/mol
Thermal translational correction ...      0.00141627 Eh       0.89 kcal/mol
-----------------------------------------------------------------------
Total thermal energy                   -652.41804242 Eh

Summary of corrections to the electronic energy:
(perhaps to be used in another calculation)
Total thermal correction                  0.01704931 Eh      10.70 kcal/mol
Non-thermal (ZPE) correction              0.30149463 Eh     189.19 kcal/mol
-----------------------------------------------------------------------
Total correction                          0.31854394 Eh     199.89 kcal/mol

--------
ENTHALPY
--------

The enthalpy is H = U + kB*T
                kB is Boltzmann's constant
Total free energy                 ...   -652.41804242 Eh
Thermal Enthalpy correction       ...      0.00094421 Eh       0.59 kcal/mol
-----------------------------------------------------------------------
Total Enthalpy                    ...   -652.41709821 Eh

Note: Only C1 symmetry has been detected, increase convergence thresholds
      if your molecule has a higher symmetry. Symmetry factor of 1.0 is
      used for the rotational entropy correction.

Rotational constants in cm-1:     0.026076     0.019036     0.014443

                             ****ORCA TERMINATED NORMALLY****
TOTAL RUN TIME: 0 days 0 hours 30 minutes 22 seconds 244 msec
