                         Program Version 5.0.4 -  RELEASE  -
|  1> ! OPT FREQ B3LYP 6-31G(d) D4 AUTOAUX CPCM(water)
|  2>
|  3> %PAL NPROCS 4 END
|  4>
|  5> %maxcore 3375
|  6>
|  7> *xyzfile 0 1 /users/fjb15167/WWenergy/structures/Ny.xyz
|  8>
|  9>                          ****END OF INPUT****
 Total Charge           Charge          ....    0
 Multiplicity           Mult            ....    1
 Number of Electrons    NEL             ....  134
Dispersion correction           -0.070379588
FINAL SINGLE POINT ENERGY      -840.990532523981
Dispersion correction            ... Starting D4
Dispersion correction           -0.069636885
FINAL SINGLE POINT ENERGY      -840.991636638312
Dispersion correction            ... Starting D4
Dispersion correction           -0.070256196
FINAL SINGLE POINT ENERGY      -840.991926952982
Dispersion correction            ... Starting D4
FINAL SINGLE POINT ENERGY      -840.992043692486
FINAL SINGLE POINT ENERGY      -840.992069426152
FINAL SINGLE POINT ENERGY      -840.992090890036
FINAL SINGLE POINT ENERGY      -840.992112709749
FINAL SINGLE POINT ENERGY      -840.992124705086
FINAL SINGLE POINT ENERGY      -840.992139282944
FINAL SINGLE POINT ENERGY      -840.992154155422
FINAL SINGLE POINT ENERGY      -840.992160637699
Dispersion correction           -0.070070227
FINAL SINGLE POINT ENERGY      -840.992165024216
Dispersion correction            ... Starting D4
Dispersion correction           -0.070073244
FINAL SINGLE POINT ENERGY      -840.992168633212
Dispersion correction            ... Starting D4
                    ***********************HURRAY********************

CARTESIAN COORDINATES (ANGSTROEM)
---------------------------------
  C     -1.970651   -1.636034    1.166033
  H      0.061569   -2.280004    1.538590
  H     -0.940191   -3.503407    0.754275
  H     -1.201643   -3.120549    2.476879
  O     -2.849154   -1.317523    1.978479
  C     -0.947318   -2.702362    1.501778
  N     -1.876050   -1.040397   -0.063451
  C     -2.927147   -0.116454   -0.493519
  H     -3.405949   -0.509185   -1.395635
  H     -3.669404   -0.062097    0.300943
  C     -0.883195   -1.434015   -1.074420
  H     -0.944396   -2.512967   -1.257519
  H     -1.191526   -0.943557   -2.002839
  C      0.550307   -1.053532   -0.754651
  C      1.594305   -1.894890   -1.159374
  H      1.362826   -2.833049   -1.659179
  C      2.926772   -1.558460   -0.930586
  H      3.732484   -2.216322   -1.243337
  C      3.236817   -0.361578   -0.274708
  O      4.556876   -0.077755   -0.063259
  H      4.632745    0.773018    0.402521
  C      0.876980    0.139407   -0.101008
  H      0.090393    0.805000    0.236242
  C      2.205092    0.486956    0.143061
  H      2.442842    1.415135    0.658589
  C     -2.360864    1.252555   -0.886754
  O     -2.184538    1.500319   -2.088305
  N     -2.038859    2.132491    0.097779
  C     -1.439588    3.414833   -0.256202
  H     -0.413641    3.471065    0.130036
  H     -1.427694    3.514215   -1.340119
  H     -2.023179    4.231088    0.185513
  C     -2.180326    1.902908    1.531774
  H     -1.194144    1.951827    2.011787
  H     -2.811722    2.686781    1.968027
  H     -2.617829    0.930537    1.749558

 Multiplicity           Mult            ....    1
 Number of Electrons    NEL             ....  134
 Basis Dimension        Dim             ....  288

ORBITAL ENERGIES
----------------

  NO   OCC          E(Eh)            E(eV)
   0   2.0000     -19.166287      -521.5412
   1   2.0000     -19.110820      -520.0319
   2   2.0000     -19.108751      -519.9755
   3   2.0000     -14.362385      -390.8204
   4   2.0000     -14.361703      -390.8018
   5   2.0000     -10.284333      -279.8509
   6   2.0000     -10.281195      -279.7655
   7   2.0000     -10.241477      -278.6848
   8   2.0000     -10.215164      -277.9687
   9   2.0000     -10.212312      -277.8911
  10   2.0000     -10.198826      -277.5242
  11   2.0000     -10.196031      -277.4481
  12   2.0000     -10.183910      -277.1183
  13   2.0000     -10.180965      -277.0382
  14   2.0000     -10.180228      -277.0181
  15   2.0000     -10.177994      -276.9573
  16   2.0000     -10.175945      -276.9015
  17   2.0000     -10.171240      -276.7735
  18   2.0000      -1.051604       -28.6156
  19   2.0000      -1.033612       -28.1260
  20   2.0000      -1.026662       -27.9369
  21   2.0000      -0.934941       -25.4410
  22   2.0000      -0.928547       -25.2671
  23   2.0000      -0.848208       -23.0809
  24   2.0000      -0.768199       -20.9038
  25   2.0000      -0.751405       -20.4468
  26   2.0000      -0.743626       -20.2351
  27   2.0000      -0.719317       -19.5736
  28   2.0000      -0.707519       -19.2526
  29   2.0000      -0.685282       -18.6475
  30   2.0000      -0.670063       -18.2333
  31   2.0000      -0.617959       -16.8155
  32   2.0000      -0.594873       -16.1873
  33   2.0000      -0.550654       -14.9841
  34   2.0000      -0.538501       -14.6534
  35   2.0000      -0.532088       -14.4789
  36   2.0000      -0.510804       -13.8997
  37   2.0000      -0.495409       -13.4808
  38   2.0000      -0.481954       -13.1146
  39   2.0000      -0.475405       -12.9364
  40   2.0000      -0.466364       -12.6904
  41   2.0000      -0.460678       -12.5357
  42   2.0000      -0.448229       -12.1969
  43   2.0000      -0.440399       -11.9839
  44   2.0000      -0.427561       -11.6345
  45   2.0000      -0.415973       -11.3192
  46   2.0000      -0.411856       -11.2072
  47   2.0000      -0.407670       -11.0933
  48   2.0000      -0.402771       -10.9600
  49   2.0000      -0.398626       -10.8472
  50   2.0000      -0.398119       -10.8334
  51   2.0000      -0.394745       -10.7415
  52   2.0000      -0.392716       -10.6863
  53   2.0000      -0.387973       -10.5573
  54   2.0000      -0.375844       -10.2272
  55   2.0000      -0.370937       -10.0937
  56   2.0000      -0.361244        -9.8300
  57   2.0000      -0.357512        -9.7284
  58   2.0000      -0.347119        -9.4456
  59   2.0000      -0.332324        -9.0430
  60   2.0000      -0.324046        -8.8178
  61   2.0000      -0.261272        -7.1096
  62   2.0000      -0.253478        -6.8975
  63   2.0000      -0.250271        -6.8102
  64   2.0000      -0.241083        -6.5602
  65   2.0000      -0.236747        -6.4422
  66   2.0000      -0.213614        -5.8127
  67   0.0000      -0.001805        -0.0491
  68   0.0000       0.011108         0.3023
  69   0.0000       0.016279         0.4430
  70   0.0000       0.028246         0.7686
  71   0.0000       0.085775         2.3340

MULLIKEN ATOMIC CHARGES
-----------------------
   0 C :    0.530554
   1 H :    0.196752
   2 H :    0.192858
   3 H :    0.179256
   4 O :   -0.533891
   5 C :   -0.556298
   6 N :   -0.373778
   7 C :   -0.247156
   8 H :    0.185070
   9 H :    0.203469
  10 C :   -0.247309
  11 H :    0.186755
  12 H :    0.193598
  13 C :    0.133774
  14 C :   -0.201017
  15 H :    0.151841
  16 C :   -0.189594
  17 H :    0.151634
  18 C :    0.346172
  19 O :   -0.668652
  20 H :    0.449799
  21 C :   -0.189198
  22 H :    0.160699
  23 C :   -0.228719
  24 H :    0.160229
  25 C :    0.518447
  26 O :   -0.540913
  27 N :   -0.359902
  28 C :   -0.331048
  29 H :    0.172872
  30 H :    0.186228
  31 H :    0.174399
  32 C :   -0.354590
  33 H :    0.172939
  34 H :    0.174255
  35 H :    0.200465
Sum of atomic charges:   -0.0000000

LOEWDIN ATOMIC CHARGES
----------------------
   0 C :    0.118486
   1 H :    0.159228
   2 H :    0.155201
   3 H :    0.149203
   4 O :   -0.336527
   5 C :   -0.392762
   6 N :   -0.070379
   7 C :   -0.177826
   8 H :    0.146907
   9 H :    0.158666
  10 C :   -0.153028
  11 H :    0.144388
  12 H :    0.154050
  13 C :   -0.058334
  14 C :   -0.128441
  15 H :    0.142135
  16 C :   -0.166618
  17 H :    0.145386
  18 C :    0.061830
  19 O :   -0.335991
  20 H :    0.349074
  21 C :   -0.132678
  22 H :    0.144157
  23 C :   -0.180587
  24 H :    0.146356
  25 C :    0.094703
  26 O :   -0.341184
  27 N :   -0.067136
  28 C :   -0.280157
  29 H :    0.134499
  30 H :    0.148006
  31 H :    0.136877
  32 C :   -0.288810
  33 H :    0.134363
  34 H :    0.136149
  35 H :    0.150792

  Mayer bond orders larger than 0.100000
B(  0-C ,  4-O ) :   1.7434 B(  0-C ,  5-C ) :   1.0002 B(  0-C ,  6-N ) :   1.1627
B(  1-H ,  5-C ) :   0.9154 B(  2-H ,  5-C ) :   0.9207 B(  3-H ,  5-C ) :   0.9387
B(  6-N ,  7-C ) :   0.9481 B(  6-N , 10-C ) :   0.9179 B(  7-C ,  8-H ) :   0.9160
B(  7-C ,  9-H ) :   0.8950 B(  7-C , 25-C ) :   0.9365 B( 10-C , 11-H ) :   0.9173
B( 10-C , 12-H ) :   0.9050 B( 10-C , 13-C ) :   0.9611 B( 13-C , 14-C ) :   1.4117
B( 13-C , 21-C ) :   1.4286 B( 14-C , 15-H ) :   0.9194 B( 14-C , 16-C ) :   1.4486
B( 16-C , 17-H ) :   0.9183 B( 16-C , 18-C ) :   1.3946 B( 18-C , 19-O ) :   0.9635
B( 18-C , 23-C ) :   1.3812 B( 19-O , 20-H ) :   0.7517 B( 21-C , 22-H ) :   0.9018
B( 21-C , 23-C ) :   1.4323 B( 23-C , 24-H ) :   0.9160 B( 25-C , 26-O ) :   1.7455
B( 25-C , 27-N ) :   1.1983 B( 26-O , 27-N ) :   0.1030 B( 27-N , 28-C ) :   0.9445
B( 27-N , 32-C ) :   0.9471 B( 28-C , 29-H ) :   0.9342 B( 28-C , 30-H ) :   0.9244
B( 28-C , 31-H ) :   0.9369 B( 32-C , 33-H ) :   0.9309 B( 32-C , 34-H ) :   0.9338
B( 32-C , 35-H ) :   0.8962

Dispersion correction           -0.070074753
FINAL SINGLE POINT ENERGY      -840.992170900662

DIPOLE MOMENT
-------------
                                X             Y             Z
Electronic contribution:      4.02036      -2.84591      -3.76042
Nuclear contribution   :     -3.00872       3.31701       4.50135
                        -----------------------------------------
Total Dipole Moment    :      1.01164       0.47110       0.74093
                        -----------------------------------------
Magnitude (a.u.)       :      1.33953
Magnitude (Debye)      :      3.40480

Dispersion correction in the Hessian             ... Starting D4

VIBRATIONAL FREQUENCIES
-----------------------

Scaling factor for frequencies =  1.000000000  (already applied!)

   0:         0.00 cm**-1
   1:         0.00 cm**-1
   2:         0.00 cm**-1
   3:         0.00 cm**-1
   4:         0.00 cm**-1
   5:         0.00 cm**-1
   6:        -9.98 cm**-1 ***imaginary mode***
   7:        37.64 cm**-1
   8:        50.30 cm**-1
   9:        59.72 cm**-1
  10:        66.58 cm**-1
  11:        85.28 cm**-1
  12:        98.49 cm**-1
  13:       112.83 cm**-1
  14:       124.00 cm**-1
  15:       155.72 cm**-1
  16:       168.42 cm**-1
  17:       178.51 cm**-1
  18:       238.80 cm**-1
  19:       266.62 cm**-1
  20:       288.11 cm**-1
  21:       308.66 cm**-1
  22:       341.68 cm**-1
  23:       355.82 cm**-1
  24:       360.46 cm**-1
  25:       377.19 cm**-1
  26:       421.78 cm**-1
  27:       423.55 cm**-1
  28:       431.31 cm**-1
  29:       458.09 cm**-1
  30:       485.88 cm**-1
  31:       516.94 cm**-1
  32:       541.92 cm**-1
  33:       580.71 cm**-1
  34:       602.95 cm**-1
  35:       636.14 cm**-1
  36:       654.00 cm**-1
  37:       705.04 cm**-1
  38:       716.59 cm**-1
  39:       767.98 cm**-1
  40:       776.01 cm**-1
  41:       821.47 cm**-1
  42:       828.05 cm**-1
  43:       842.82 cm**-1
  44:       863.41 cm**-1
  45:       942.47 cm**-1
  46:       958.04 cm**-1
  47:       960.93 cm**-1
  48:       986.25 cm**-1
  49:      1003.97 cm**-1
  50:      1009.85 cm**-1
  51:      1032.61 cm**-1
  52:      1063.11 cm**-1
  53:      1088.30 cm**-1
  54:      1100.50 cm**-1
  55:      1133.38 cm**-1
  56:      1138.65 cm**-1
  57:      1172.24 cm**-1
  58:      1187.67 cm**-1
  59:      1196.51 cm**-1
  60:      1204.07 cm**-1
  61:      1219.68 cm**-1
  62:      1241.91 cm**-1
  63:      1273.34 cm**-1
  64:      1282.41 cm**-1
  65:      1302.30 cm**-1
  66:      1311.64 cm**-1
  67:      1340.49 cm**-1
  68:      1372.73 cm**-1
  69:      1379.99 cm**-1
  70:      1394.90 cm**-1
  71:      1413.67 cm**-1
  72:      1441.13 cm**-1
  73:      1459.37 cm**-1
  74:      1466.42 cm**-1
  75:      1483.27 cm**-1
  76:      1485.67 cm**-1
  77:      1491.00 cm**-1
  78:      1496.93 cm**-1
  79:      1506.35 cm**-1
  80:      1508.59 cm**-1
  81:      1518.02 cm**-1
  82:      1525.23 cm**-1
  83:      1535.03 cm**-1
  84:      1559.23 cm**-1
  85:      1563.50 cm**-1
  86:      1647.38 cm**-1
  87:      1672.61 cm**-1
  88:      1701.31 cm**-1
  89:      1708.79 cm**-1
  90:      3037.46 cm**-1
  91:      3044.92 cm**-1
  92:      3061.62 cm**-1
  93:      3067.73 cm**-1
  94:      3087.78 cm**-1
  95:      3088.51 cm**-1
  96:      3098.60 cm**-1
  97:      3107.32 cm**-1
  98:      3133.44 cm**-1
  99:      3172.64 cm**-1
 100:      3175.56 cm**-1
 101:      3183.91 cm**-1
 102:      3187.21 cm**-1
 103:      3195.40 cm**-1
 104:      3197.15 cm**-1
 105:      3210.93 cm**-1
 106:      3235.42 cm**-1
 107:      3715.02 cm**-1

IR SPECTRUM
-----------

 Mode   freq       eps      Int      T**2         TX        TY        TZ
       cm**-1   L/(mol*cm) km/mol    a.u.
----------------------------------------------------------------------------
  7:     37.64   0.000123    0.62  0.001023  (-0.011810  0.012222  0.027089)
  8:     50.30   0.000825    4.17  0.005120  (-0.069891  0.014241 -0.005713)
  9:     59.72   0.001341    6.78  0.007009  ( 0.069676 -0.020740  0.041523)
 10:     66.58   0.000119    0.60  0.000559  ( 0.018011 -0.015284  0.001177)
 11:     85.28   0.000039    0.20  0.000142  (-0.005243  0.004265 -0.009813)
 12:     98.49   0.003417   17.27  0.010826  (-0.009173 -0.103607 -0.002725)
 13:    112.83   0.000360    1.82  0.000995  ( 0.000260 -0.031437 -0.002499)
 14:    124.00   0.000605    3.06  0.001523  ( 0.008914  0.032028  0.020430)
 15:    155.72   0.000180    0.91  0.000361  ( 0.013241 -0.002475  0.013412)
 16:    168.42   0.001081    5.46  0.002003  (-0.010033 -0.039940  0.017532)
 17:    178.51   0.000131    0.66  0.000229  ( 0.008959 -0.009056  0.008161)
 18:    238.80   0.000279    1.41  0.000364  (-0.017749  0.002309 -0.006630)
 19:    266.62   0.000361    1.82  0.000422  (-0.005294 -0.019855  0.000310)
 20:    288.11   0.003883   19.63  0.004206  ( 0.058046 -0.028918 -0.000871)
 21:    308.66   0.002122   10.72  0.002145  (-0.016011  0.032220 -0.029169)
 22:    341.68   0.001675    8.47  0.001530  ( 0.002736 -0.035847  0.015416)
 23:    355.82   0.002950   14.91  0.002587  ( 0.014723  0.036131  0.032631)
 24:    360.46   0.036236  183.12  0.031371  ( 0.009342  0.086868 -0.154070)
 25:    377.19   0.002174   10.99  0.001799  (-0.023992 -0.024088 -0.025360)
 26:    421.78   0.000158    0.80  0.000117  ( 0.010343  0.002289  0.002198)
 27:    423.55   0.000465    2.35  0.000343  ( 0.017495  0.005853  0.001590)
 28:    431.31   0.000759    3.84  0.000549  (-0.016106 -0.016937 -0.001677)
 29:    458.09   0.005767   29.14  0.003928  (-0.054975 -0.016017  0.025489)
 30:    485.88   0.005224   26.40  0.003355  (-0.044606  0.027213 -0.025002)
 31:    516.94   0.002364   11.95  0.001427  (-0.003683 -0.028472  0.024551)
 32:    541.92   0.001156    5.84  0.000666  (-0.022229 -0.011799 -0.005675)
 33:    580.71   0.003174   16.04  0.001705  ( 0.007795  0.039889 -0.007318)
 34:    602.95   0.003834   19.37  0.001984  (-0.029728 -0.031865  0.009227)
 35:    636.14   0.005231   26.44  0.002566  ( 0.008794  0.018963  0.046144)
 36:    654.00   0.000832    4.20  0.000397  (-0.003482 -0.006600 -0.018469)
 37:    705.04   0.000049    0.25  0.000022  ( 0.002209  0.003848  0.001365)
 38:    716.59   0.001249    6.31  0.000544  (-0.022837 -0.001238  0.004542)
 39:    767.98   0.001490    7.53  0.000605  (-0.010502 -0.017124  0.014207)
 40:    776.01   0.002084   10.53  0.000838  (-0.020849  0.013148  0.015179)
 41:    821.47   0.008693   43.93  0.003302  (-0.003588 -0.006396 -0.056997)
 42:    828.05   0.002704   13.67  0.001019  ( 0.001242 -0.031899  0.000337)
 43:    842.82   0.007378   37.28  0.002732  ( 0.003019  0.038944 -0.034727)
 44:    863.41   0.003868   19.55  0.001398  (-0.035694 -0.011012 -0.001601)
 45:    942.47   0.000985    4.98  0.000326  ( 0.015731 -0.002477  0.008511)
 46:    958.04   0.000402    2.03  0.000131  (-0.002925  0.003887  0.010365)
 47:    960.93   0.000385    1.94  0.000125  (-0.006790  0.005263 -0.007153)
 48:    986.25   0.006662   33.67  0.002108  ( 0.033751 -0.026689  0.016020)
 49:   1003.97   0.007210   36.44  0.002241  (-0.019133 -0.027672 -0.033304)
 50:   1009.85   0.006993   35.34  0.002161  ( 0.024967  0.028606 -0.026821)
 51:   1032.61   0.000382    1.93  0.000116  (-0.009995  0.003920 -0.000561)
 52:   1063.11   0.002727   13.78  0.000801  ( 0.021080  0.016852  0.008501)
 53:   1088.30   0.004093   20.68  0.001174  (-0.011194 -0.005779  0.031858)
 54:   1100.50   0.006890   34.82  0.001954  (-0.001726  0.024688  0.036624)
 55:   1133.38   0.007315   36.97  0.002014  ( 0.015209  0.037856  0.018705)
 56:   1138.65   0.000162    0.82  0.000045  ( 0.003048 -0.005852  0.000985)
 57:   1172.24   0.013329   67.36  0.003548  (-0.004934 -0.034983 -0.047961)
 58:   1187.67   0.000635    3.21  0.000167  ( 0.007653 -0.009542 -0.004140)
 59:   1196.51   0.055837  282.18  0.014563  ( 0.119622  0.015866  0.001338)
 60:   1204.07   0.000963    4.87  0.000250  ( 0.014669 -0.005359  0.002381)
 61:   1219.68   0.009697   49.00  0.002481  (-0.038795 -0.011970 -0.028857)
 62:   1241.91   0.001411    7.13  0.000355  ( 0.017370  0.001950 -0.007004)
 63:   1273.34   0.026402  133.43  0.006470  ( 0.013604 -0.045346  0.065032)
 64:   1282.41   0.020751  104.87  0.005050  ( 0.021035  0.063453 -0.024103)
 65:   1302.30   0.034475  174.22  0.008261  ( 0.082944  0.036363  0.007683)
 66:   1311.64   0.007366   37.23  0.001753  (-0.026392  0.020367 -0.025322)
 67:   1340.49   0.007508   37.94  0.001748  (-0.033487 -0.023925  0.007347)
 68:   1372.73   0.001221    6.17  0.000278  (-0.008405 -0.001499 -0.014305)
 69:   1379.99   0.008841   44.68  0.001999  ( 0.041595  0.016015  0.003537)
 70:   1394.90   0.019778   99.95  0.004425  ( 0.047325  0.008164 -0.046026)
 71:   1413.67   0.004063   20.53  0.000897  ( 0.005552  0.019809 -0.021765)
 72:   1441.13   0.011792   59.59  0.002553  (-0.003061 -0.033719 -0.037511)
 73:   1459.37   0.020253  102.35  0.004331  (-0.007928 -0.065265 -0.002901)
 74:   1466.42   0.033375  168.66  0.007102  ( 0.002987 -0.024435  0.080600)
 75:   1483.27   0.007421   37.50  0.001561  ( 0.033615 -0.003936 -0.020393)
 76:   1485.67   0.005771   29.17  0.001212  (-0.024294 -0.022946 -0.009775)
 77:   1491.00   0.003738   18.89  0.000782  (-0.018186 -0.015933  0.014062)
 78:   1496.93   0.001456    7.36  0.000303  ( 0.003698 -0.016819  0.002625)
 79:   1506.35   0.004168   21.06  0.000863  (-0.011579  0.020336 -0.017772)
 80:   1508.59   0.001685    8.51  0.000349  ( 0.012864 -0.012534  0.005093)
 81:   1518.02   0.008222   41.55  0.001690  ( 0.036701 -0.016791  0.007830)
 82:   1525.23   0.015166   76.64  0.003103  (-0.016277  0.005276 -0.053011)
 83:   1535.03   0.002773   14.01  0.000564  (-0.020892  0.005510 -0.009840)
 84:   1559.23   0.022097  111.67  0.004422  ( 0.038750  0.051957  0.014881)
 85:   1563.50   0.024343  123.02  0.004859  ( 0.068962  0.006892  0.007444)
 86:   1647.38   0.008003   40.45  0.001516  (-0.036522  0.010915  0.007944)
 87:   1672.61   0.012841   64.90  0.002396  (-0.042901 -0.020810 -0.011057)
 88:   1701.31   0.206957  1045.87  0.037961  (-0.055295  0.027203  0.184834)
 89:   1708.79   0.028308  143.06  0.005170  ( 0.069790  0.005553  0.016377)
 90:   3037.46   0.008968   45.32  0.000921  (-0.000861  0.006610  0.029614)
 91:   3044.92   0.017815   90.03  0.001826  (-0.017173 -0.033431 -0.020328)
 92:   3061.62   0.007202   36.40  0.000734  ( 0.004014  0.021455  0.016051)
 93:   3067.73   0.001279    6.46  0.000130  (-0.002670  0.011047  0.000979)
 94:   3087.78   0.012046   60.88  0.001217  (-0.029678  0.017843  0.004275)
 95:   3088.51   0.007370   37.24  0.000745  (-0.019587 -0.002074 -0.018886)
 96:   3098.60   0.005288   26.72  0.000533  ( 0.019070 -0.012933 -0.001265)
 97:   3107.32   0.001925    9.73  0.000193  (-0.002853  0.011609 -0.007100)
 98:   3133.44   0.001393    7.04  0.000139  ( 0.003850  0.007201  0.008489)
 99:   3172.64   0.003085   15.59  0.000303  (-0.006469 -0.007284  0.014440)
100:   3175.56   0.000576    2.91  0.000057  ( 0.001938 -0.007069 -0.001696)
101:   3183.91   0.005045   25.50  0.000494  (-0.011444 -0.016629 -0.009327)
102:   3187.21   0.001463    7.40  0.000143  (-0.008569 -0.007558 -0.003569)
103:   3195.40   0.002139   10.81  0.000209  ( 0.001617 -0.013167  0.005742)
104:   3197.15   0.000647    3.27  0.000063  (-0.003736  0.004845  0.005071)
105:   3210.93   0.003176   16.05  0.000309  (-0.012730  0.010550  0.005938)
106:   3235.42   0.000699    3.53  0.000067  (-0.000119 -0.005799 -0.005808)
107:   3715.02   0.027332  138.12  0.002296  (-0.025453 -0.035427 -0.019823)

--------------------------
THERMOCHEMISTRY AT 298.15K
--------------------------

Temperature         ... 298.15 K
Pressure            ... 1.00 atm
Total Mass          ... 250.30 AMU

Throughout the following assumptions are being made:
  (1) The electronic state is orbitally nondegenerate
  (2) There are no thermally accessible electronically excited states
  (3) Hindered rotations indicated by low frequency modes are not
      treated as such but are treated as vibrations and this may
      cause some error
  (4) All equations used are the standard statistical mechanics
      equations for an ideal gas
  (5) All vibrations are strictly harmonic

freq.      37.64  E(vib)   ...       0.54
freq.      50.30  E(vib)   ...       0.52
freq.      59.72  E(vib)   ...       0.51
freq.      66.58  E(vib)   ...       0.50
freq.      85.28  E(vib)   ...       0.48
freq.      98.49  E(vib)   ...       0.46
freq.     112.83  E(vib)   ...       0.45
freq.     124.00  E(vib)   ...       0.43
freq.     155.72  E(vib)   ...       0.40
freq.     168.42  E(vib)   ...       0.38
freq.     178.51  E(vib)   ...       0.37
freq.     238.80  E(vib)   ...       0.32
freq.     266.62  E(vib)   ...       0.29
freq.     288.11  E(vib)   ...       0.27
freq.     308.66  E(vib)   ...       0.26
freq.     341.68  E(vib)   ...       0.23
freq.     355.82  E(vib)   ...       0.22
freq.     360.46  E(vib)   ...       0.22
freq.     377.19  E(vib)   ...       0.21
freq.     421.78  E(vib)   ...       0.18
freq.     423.55  E(vib)   ...       0.18
freq.     431.31  E(vib)   ...       0.18
freq.     458.09  E(vib)   ...       0.16
freq.     485.88  E(vib)   ...       0.15
freq.     516.94  E(vib)   ...       0.13
freq.     541.92  E(vib)   ...       0.12
freq.     580.71  E(vib)   ...       0.11
freq.     602.95  E(vib)   ...       0.10
freq.     636.14  E(vib)   ...       0.09
freq.     654.00  E(vib)   ...       0.08
freq.     705.04  E(vib)   ...       0.07
freq.     716.59  E(vib)   ...       0.07
freq.     767.98  E(vib)   ...       0.06
freq.     776.01  E(vib)   ...       0.05
freq.     821.47  E(vib)   ...       0.05
freq.     828.05  E(vib)   ...       0.04
freq.     842.82  E(vib)   ...       0.04
freq.     863.41  E(vib)   ...       0.04
freq.     942.47  E(vib)   ...       0.03
freq.     958.04  E(vib)   ...       0.03
freq.     960.93  E(vib)   ...       0.03
freq.     986.25  E(vib)   ...       0.02
freq.    1003.97  E(vib)   ...       0.02
freq.    1009.85  E(vib)   ...       0.02
freq.    1032.61  E(vib)   ...       0.02
freq.    1063.11  E(vib)   ...       0.02
freq.    1088.30  E(vib)   ...       0.02
freq.    1100.50  E(vib)   ...       0.02
freq.    1133.38  E(vib)   ...       0.01
freq.    1138.65  E(vib)   ...       0.01
freq.    1172.24  E(vib)   ...       0.01
freq.    1187.67  E(vib)   ...       0.01
freq.    1196.51  E(vib)   ...       0.01
freq.    1204.07  E(vib)   ...       0.01
freq.    1219.68  E(vib)   ...       0.01
freq.    1241.91  E(vib)   ...       0.01
freq.    1273.34  E(vib)   ...       0.01
freq.    1282.41  E(vib)   ...       0.01
freq.    1302.30  E(vib)   ...       0.01
freq.    1311.64  E(vib)   ...       0.01
freq.    1340.49  E(vib)   ...       0.01
freq.    1372.73  E(vib)   ...       0.01
freq.    1379.99  E(vib)   ...       0.01
freq.    1394.90  E(vib)   ...       0.00
freq.    1413.67  E(vib)   ...       0.00
freq.    1441.13  E(vib)   ...       0.00
freq.    1459.37  E(vib)   ...       0.00
freq.    1466.42  E(vib)   ...       0.00
freq.    1483.27  E(vib)   ...       0.00
freq.    1485.67  E(vib)   ...       0.00
freq.    1491.00  E(vib)   ...       0.00
freq.    1496.93  E(vib)   ...       0.00
freq.    1506.35  E(vib)   ...       0.00
freq.    1508.59  E(vib)   ...       0.00
freq.    1518.02  E(vib)   ...       0.00
freq.    1525.23  E(vib)   ...       0.00
freq.    1535.03  E(vib)   ...       0.00
freq.    1559.23  E(vib)   ...       0.00
freq.    1563.50  E(vib)   ...       0.00
freq.    1647.38  E(vib)   ...       0.00
freq.    1672.61  E(vib)   ...       0.00
freq.    1701.31  E(vib)   ...       0.00
freq.    1708.79  E(vib)   ...       0.00
freq.    3037.46  E(vib)   ...       0.00
freq.    3044.92  E(vib)   ...       0.00
freq.    3061.62  E(vib)   ...       0.00
freq.    3067.73  E(vib)   ...       0.00
freq.    3087.78  E(vib)   ...       0.00
freq.    3088.51  E(vib)   ...       0.00
freq.    3098.60  E(vib)   ...       0.00
freq.    3107.32  E(vib)   ...       0.00
freq.    3133.44  E(vib)   ...       0.00
freq.    3172.64  E(vib)   ...       0.00
freq.    3175.56  E(vib)   ...       0.00
freq.    3183.91  E(vib)   ...       0.00
freq.    3187.21  E(vib)   ...       0.00
freq.    3195.40  E(vib)   ...       0.00
freq.    3197.15  E(vib)   ...       0.00
freq.    3210.93  E(vib)   ...       0.00
freq.    3235.42  E(vib)   ...       0.00
freq.    3715.02  E(vib)   ...       0.00

------------
INNER ENERGY
------------

The inner energy is: U= E(el) + E(ZPE) + E(vib) + E(rot) + E(trans)
    E(el)   - is the total energy from the electronic structure calculation
              = E(kin-el) + E(nuc-el) + E(el-el) + E(nuc-nuc)
    E(ZPE)  - the the zero temperature vibrational energy from the frequency calculation
    E(vib)  - the the finite temperature correction to E(ZPE) due to population
              of excited vibrational states
    E(rot)  - is the rotational thermal energy
    E(trans)- is the translational thermal energy

Summary of contributions to the inner energy U:
Electronic energy                ...   -840.99217090 Eh
Zero point energy                ...      0.30124557 Eh     189.03 kcal/mol
Thermal vibrational correction   ...      0.01495313 Eh       9.38 kcal/mol
Thermal rotational correction    ...      0.00141627 Eh       0.89 kcal/mol
Thermal translational correction ...      0.00141627 Eh       0.89 kcal/mol
-----------------------------------------------------------------------
Total thermal energy                   -840.67313966 Eh

Summary of corrections to the electronic energy:
(perhaps to be used in another calculation)
Total thermal correction                  0.01778567 Eh      11.16 kcal/mol
Non-thermal (ZPE) correction              0.30124557 Eh     189.03 kcal/mol
-----------------------------------------------------------------------
Total correction                          0.31903124 Eh     200.19 kcal/mol

--------
ENTHALPY
--------

The enthalpy is H = U + kB*T
                kB is Boltzmann's constant
Total free energy                 ...   -840.67313966 Eh
Thermal Enthalpy correction       ...      0.00094421 Eh       0.59 kcal/mol
-----------------------------------------------------------------------
Total Enthalpy                    ...   -840.67219545 Eh

Rotational constants in cm-1:     0.018513     0.009956     0.008091

                             ****ORCA TERMINATED NORMALLY****
TOTAL RUN TIME: 0 days 0 hours 42 minutes 44 seconds 897 msec
