                         Program Version 5.0.4 -  RELEASE  -
|  1> ! OPT FREQ B3LYP 6-31G(d) D4 AUTOAUX
|  2>
|  3> %PAL NPROCS 4 END
|  4>
|  5> %maxcore 3375
|  6>
|  7> *xyzfile 0 1 /users/fjb15167/WWenergy/structures/Nfer.xyz
|  8>
|  9>                          ****END OF INPUT****
 Total Charge           Charge          ....    0
 Multiplicity           Mult            ....    1
 Number of Electrons    NEL             ....  134
Dispersion correction           -0.076852284
FINAL SINGLE POINT ENERGY      -805.066668393253
Dispersion correction            ... Starting D4
Dispersion correction           -0.076061309
FINAL SINGLE POINT ENERGY      -805.067092913181
Dispersion correction            ... Starting D4
Dispersion correction           -0.076688035
FINAL SINGLE POINT ENERGY      -805.067103296712
Dispersion correction            ... Starting D4
FINAL SINGLE POINT ENERGY      -805.067269769774
FINAL SINGLE POINT ENERGY      -805.067286216534
FINAL SINGLE POINT ENERGY      -805.067335885465
FINAL SINGLE POINT ENERGY      -805.067362544050
FINAL SINGLE POINT ENERGY      -805.067376001571
FINAL SINGLE POINT ENERGY      -805.067388162994
FINAL SINGLE POINT ENERGY      -805.067395795576
FINAL SINGLE POINT ENERGY      -805.067398303984
Dispersion correction           -0.076783903
FINAL SINGLE POINT ENERGY      -805.067400042315
Dispersion correction            ... Starting D4
Dispersion correction           -0.076794774
FINAL SINGLE POINT ENERGY      -805.067399991826
Dispersion correction            ... Starting D4
                    ***********************HURRAY********************

CARTESIAN COORDINATES (ANGSTROEM)
---------------------------------
  C     -2.697450   -1.336351   -1.083925
  H     -3.219140   -1.399818   -0.126338
  H     -3.102863   -2.071745   -1.781279
  H     -2.885466   -0.339163   -1.497560
  C     -1.203636   -1.597693   -0.989441
  N     -0.522117   -1.149290    0.125458
  C      0.856760   -1.667848    0.323852
  H      0.980748   -2.381839   -0.491248
  C      1.882556   -0.566107    0.116116
  C      2.190887   -0.194518   -1.201487
  C      2.484381    0.129011    1.170109
  C      3.064812    0.858706   -1.457360
  H      1.717079   -0.732211   -2.018781
  C      3.359397    1.189820    0.915582
  H      2.279748   -0.153854    2.198795
  C      3.648641    1.559555   -0.396817
  H      3.294665    1.133720   -2.483581
  H      3.816098    1.722480    1.745751
  H      4.330369    2.382401   -0.594920
  C     -1.113605   -0.389395    1.225332
  H     -1.637061   -1.038258    1.935669
  H     -0.283900    0.081248    1.766206
  C     -2.137241    0.710119    0.888172
  N     -1.779307    1.706336    0.024413
  O     -3.241118    0.663852    1.426360
  O     -0.623561   -2.198290   -1.892265
  C     -0.464451    1.864847   -0.577238
  H     -0.421230    1.439779   -1.588783
  H     -0.234964    2.934418   -0.642535
  H      0.307600    1.394453    0.025204
  C     -2.787748    2.677624   -0.376625
  H     -2.499271    3.687184   -0.055903
  H     -2.897179    2.680674   -1.469416
  H     -3.734250    2.407324    0.089608
  C      0.982550   -2.433425    1.644388
  H      0.254393   -3.250909    1.672118
  H      1.986330   -2.863854    1.726239
  H      0.817542   -1.807981    2.528128

 Multiplicity           Mult            ....    1
 Number of Electrons    NEL             ....  134
 Basis Dimension        Dim             ....  292

ORBITAL ENERGIES
----------------

  NO   OCC          E(Eh)            E(eV)
   0   2.0000     -19.104599      -519.8626
   1   2.0000     -19.101498      -519.7782
   2   2.0000     -14.361448      -390.7949
   3   2.0000     -14.357136      -390.6775
   4   2.0000     -10.281983      -279.7870
   5   2.0000     -10.278192      -279.6838
   6   2.0000     -10.224645      -278.2267
   7   2.0000     -10.218894      -278.0702
   8   2.0000     -10.208642      -277.7913
   9   2.0000     -10.204445      -277.6771
  10   2.0000     -10.192125      -277.3418
  11   2.0000     -10.188532      -277.2441
  12   2.0000     -10.187622      -277.2193
  13   2.0000     -10.187322      -277.2111
  14   2.0000     -10.186633      -277.1924
  15   2.0000     -10.181346      -277.0485
  16   2.0000     -10.176200      -276.9085
  17   2.0000     -10.170785      -276.7611
  18   2.0000      -1.031531       -28.0694
  19   2.0000      -1.024078       -27.8666
  20   2.0000      -0.935484       -25.4558
  21   2.0000      -0.927174       -25.2297
  22   2.0000      -0.856809       -23.3150
  23   2.0000      -0.788750       -21.4630
  24   2.0000      -0.747809       -20.3489
  25   2.0000      -0.742976       -20.2174
  26   2.0000      -0.734619       -19.9900
  27   2.0000      -0.719052       -19.5664
  28   2.0000      -0.716220       -19.4893
  29   2.0000      -0.683839       -18.6082
  30   2.0000      -0.639597       -17.4043
  31   2.0000      -0.605885       -16.4870
  32   2.0000      -0.587221       -15.9791
  33   2.0000      -0.563276       -15.3275
  34   2.0000      -0.539816       -14.6891
  35   2.0000      -0.520719       -14.1695
  36   2.0000      -0.493710       -13.4345
  37   2.0000      -0.484606       -13.1868
  38   2.0000      -0.482994       -13.1429
  39   2.0000      -0.467722       -12.7274
  40   2.0000      -0.459610       -12.5066
  41   2.0000      -0.457944       -12.4613
  42   2.0000      -0.449597       -12.2341
  43   2.0000      -0.446982       -12.1630
  44   2.0000      -0.430646       -11.7185
  45   2.0000      -0.420098       -11.4314
  46   2.0000      -0.418540       -11.3891
  47   2.0000      -0.407314       -11.0836
  48   2.0000      -0.406027       -11.0486
  49   2.0000      -0.403626       -10.9832
  50   2.0000      -0.398674       -10.8485
  51   2.0000      -0.391970       -10.6661
  52   2.0000      -0.386555       -10.5187
  53   2.0000      -0.380354       -10.3500
  54   2.0000      -0.376984       -10.2583
  55   2.0000      -0.367835       -10.0093
  56   2.0000      -0.357327        -9.7234
  57   2.0000      -0.353578        -9.6214
  58   2.0000      -0.350575        -9.5396
  59   2.0000      -0.336564        -9.1584
  60   2.0000      -0.333764        -9.0822
  61   2.0000      -0.257544        -7.0081
  62   2.0000      -0.254915        -6.9366
  63   2.0000      -0.248266        -6.7557
  64   2.0000      -0.239628        -6.5206
  65   2.0000      -0.238445        -6.4884
  66   2.0000      -0.232854        -6.3363
  67   0.0000      -0.008809        -0.2397
  68   0.0000      -0.005923        -0.1612
  69   0.0000       0.019163         0.5215
  70   0.0000       0.028087         0.7643
  71   0.0000       0.077059         2.0969

MULLIKEN ATOMIC CHARGES
-----------------------
   0 C :   -0.558871
   1 H :    0.188898
   2 H :    0.183420
   3 H :    0.179663
   4 C :    0.527549
   5 N :   -0.387574
   6 C :   -0.076120
   7 H :    0.193656
   8 C :    0.151506
   9 C :   -0.182514
  10 C :   -0.193081
  11 C :   -0.131317
  12 H :    0.162629
  13 C :   -0.129701
  14 H :    0.126819
  15 C :   -0.127954
  16 H :    0.133267
  17 H :    0.131067
  18 H :    0.130761
  19 C :   -0.248992
  20 H :    0.182478
  21 H :    0.172882
  22 C :    0.516882
  23 N :   -0.366382
  24 O :   -0.479496
  25 O :   -0.478094
  26 C :   -0.326769
  27 H :    0.164362
  28 H :    0.155538
  29 H :    0.191295
  30 C :   -0.325643
  31 H :    0.155113
  32 H :    0.152188
  33 H :    0.203951
  34 C :   -0.459261
  35 H :    0.160053
  36 H :    0.161481
  37 H :    0.146310
Sum of atomic charges:   -0.0000000

LOEWDIN ATOMIC CHARGES
----------------------
   0 C :   -0.394843
   1 H :    0.149726
   2 H :    0.152407
   3 H :    0.150861
   4 C :    0.112020
   5 N :   -0.085867
   6 C :   -0.058859
   7 H :    0.159601
   8 C :   -0.029199
   9 C :   -0.125360
  10 C :   -0.147351
  11 C :   -0.128785
  12 H :    0.146077
  13 C :   -0.130109
  14 H :    0.130064
  15 C :   -0.131210
  16 H :    0.133077
  17 H :    0.131995
  18 H :    0.132075
  19 C :   -0.180350
  20 H :    0.142213
  21 H :    0.144897
  22 C :    0.093942
  23 N :   -0.083003
  24 O :   -0.281901
  25 O :   -0.285738
  26 C :   -0.278701
  27 H :    0.127712
  28 H :    0.129271
  29 H :    0.148368
  30 C :   -0.278747
  31 H :    0.125462
  32 H :    0.123400
  33 H :    0.156828
  34 C :   -0.364733
  35 H :    0.135038
  36 H :    0.137144
  37 H :    0.122578

  Mayer bond orders larger than 0.100000
B(  0-C ,  1-H ) :   0.9159 B(  0-C ,  2-H ) :   0.9365 B(  0-C ,  3-H ) :   0.9260
B(  0-C ,  4-C ) :   0.9864 B(  4-C ,  5-N ) :   1.1114 B(  4-C , 25-O ) :   1.8041
B(  5-N ,  6-C ) :   0.9240 B(  5-N , 19-C ) :   0.9274 B(  6-C ,  7-H ) :   0.8895
B(  6-C ,  8-C ) :   0.9703 B(  6-C , 34-C ) :   1.0024 B(  8-C ,  9-C ) :   1.4201
B(  8-C , 10-C ) :   1.4265 B(  9-C , 11-C ) :   1.4450 B(  9-C , 12-H ) :   0.9089
B( 10-C , 13-C ) :   1.4199 B( 10-C , 14-H ) :   0.9198 B( 11-C , 15-C ) :   1.4336
B( 11-C , 16-H ) :   0.9295 B( 13-C , 15-C ) :   1.4662 B( 13-C , 17-H ) :   0.9295
B( 15-C , 18-H ) :   0.9303 B( 19-C , 20-H ) :   0.9144 B( 19-C , 21-H ) :   0.9065
B( 19-C , 22-C ) :   0.9389 B( 22-C , 23-N ) :   1.1562 B( 22-C , 24-O ) :   1.7989
B( 23-N , 26-C ) :   0.9511 B( 23-N , 30-C ) :   0.9533 B( 26-C , 27-H ) :   0.9315
B( 26-C , 28-H ) :   0.9389 B( 26-C , 29-H ) :   0.9165 B( 30-C , 31-H ) :   0.9404
B( 30-C , 32-H ) :   0.9403 B( 30-C , 33-H ) :   0.9184 B( 34-C , 35-H ) :   0.9445
B( 34-C , 36-H ) :   0.9430 B( 34-C , 37-H ) :   0.9339

Dispersion correction           -0.076795142
FINAL SINGLE POINT ENERGY      -805.067400206105

DIPOLE MOMENT
-------------
                                X             Y             Z
Electronic contribution:      2.13193      -2.83264      -0.76680
Nuclear contribution   :     -1.25729       3.81269       1.02479
                        -----------------------------------------
Total Dipole Moment    :      0.87464       0.98005       0.25798
                        -----------------------------------------
Magnitude (a.u.)       :      1.33868
Magnitude (Debye)      :      3.40265

Dispersion correction in the Hessian             ... Starting D4

VIBRATIONAL FREQUENCIES
-----------------------

Scaling factor for frequencies =  1.000000000  (already applied!)

   0:         0.00 cm**-1
   1:         0.00 cm**-1
   2:         0.00 cm**-1
   3:         0.00 cm**-1
   4:         0.00 cm**-1
   5:         0.00 cm**-1
   6:        35.76 cm**-1
   7:        46.74 cm**-1
   8:        53.19 cm**-1
   9:        67.39 cm**-1
  10:        73.77 cm**-1
  11:        93.48 cm**-1
  12:       105.53 cm**-1
  13:       116.54 cm**-1
  14:       153.85 cm**-1
  15:       171.42 cm**-1
  16:       187.27 cm**-1
  17:       202.61 cm**-1
  18:       210.23 cm**-1
  19:       231.44 cm**-1
  20:       238.03 cm**-1
  21:       266.88 cm**-1
  22:       277.68 cm**-1
  23:       314.81 cm**-1
  24:       323.52 cm**-1
  25:       351.11 cm**-1
  26:       405.95 cm**-1
  27:       417.99 cm**-1
  28:       441.55 cm**-1
  29:       457.79 cm**-1
  30:       515.53 cm**-1
  31:       550.56 cm**-1
  32:       576.54 cm**-1
  33:       593.97 cm**-1
  34:       615.16 cm**-1
  35:       629.76 cm**-1
  36:       636.88 cm**-1
  37:       683.09 cm**-1
  38:       721.08 cm**-1
  39:       759.97 cm**-1
  40:       778.98 cm**-1
  41:       793.69 cm**-1
  42:       816.02 cm**-1
  43:       871.00 cm**-1
  44:       929.13 cm**-1
  45:       937.40 cm**-1
  46:       980.03 cm**-1
  47:      1000.63 cm**-1
  48:      1005.06 cm**-1
  49:      1012.90 cm**-1
  50:      1018.32 cm**-1
  51:      1028.00 cm**-1
  52:      1059.58 cm**-1
  53:      1061.09 cm**-1
  54:      1066.50 cm**-1
  55:      1088.83 cm**-1
  56:      1092.05 cm**-1
  57:      1103.29 cm**-1
  58:      1139.12 cm**-1
  59:      1151.79 cm**-1
  60:      1181.09 cm**-1
  61:      1193.66 cm**-1
  62:      1195.26 cm**-1
  63:      1209.51 cm**-1
  64:      1219.30 cm**-1
  65:      1243.40 cm**-1
  66:      1295.17 cm**-1
  67:      1304.06 cm**-1
  68:      1331.92 cm**-1
  69:      1338.67 cm**-1
  70:      1371.29 cm**-1
  71:      1387.60 cm**-1
  72:      1414.21 cm**-1
  73:      1425.77 cm**-1
  74:      1438.79 cm**-1
  75:      1445.63 cm**-1
  76:      1453.51 cm**-1
  77:      1462.03 cm**-1
  78:      1494.45 cm**-1
  79:      1503.86 cm**-1
  80:      1505.82 cm**-1
  81:      1513.22 cm**-1
  82:      1520.80 cm**-1
  83:      1521.72 cm**-1
  84:      1523.49 cm**-1
  85:      1530.47 cm**-1
  86:      1534.38 cm**-1
  87:      1537.53 cm**-1
  88:      1547.99 cm**-1
  89:      1562.09 cm**-1
  90:      1644.88 cm**-1
  91:      1666.07 cm**-1
  92:      1745.11 cm**-1
  93:      1757.89 cm**-1
  94:      3031.04 cm**-1
  95:      3041.58 cm**-1
  96:      3053.57 cm**-1
  97:      3058.35 cm**-1
  98:      3071.24 cm**-1
  99:      3080.11 cm**-1
 100:      3095.90 cm**-1
 101:      3098.10 cm**-1
 102:      3115.68 cm**-1
 103:      3129.93 cm**-1
 104:      3136.73 cm**-1
 105:      3140.94 cm**-1
 106:      3172.98 cm**-1
 107:      3181.56 cm**-1
 108:      3189.40 cm**-1
 109:      3191.13 cm**-1
 110:      3198.87 cm**-1
 111:      3204.98 cm**-1
 112:      3211.60 cm**-1
 113:      3217.40 cm**-1

IR SPECTRUM
-----------

 Mode   freq       eps      Int      T**2         TX        TY        TZ
       cm**-1   L/(mol*cm) km/mol    a.u.
----------------------------------------------------------------------------
  6:     35.76   0.000201    1.01  0.001751  ( 0.019406 -0.001183 -0.037059)
  7:     46.74   0.000547    2.76  0.003653  ( 0.027716  0.047621  0.024845)
  8:     53.19   0.000032    0.16  0.000188  ( 0.012405 -0.004285 -0.003968)
  9:     67.39   0.000411    2.08  0.001905  (-0.002579 -0.042551  0.009355)
 10:     73.77   0.000366    1.85  0.001547  (-0.017811  0.029224 -0.019373)
 11:     93.48   0.000332    1.68  0.001110  ( 0.002189 -0.027725  0.018342)
 12:    105.53   0.000222    1.12  0.000657  (-0.012949 -0.022114 -0.000259)
 13:    116.54   0.000205    1.03  0.000548  (-0.010871  0.005724  0.019933)
 14:    153.85   0.000461    2.33  0.000936  ( 0.002539  0.030470  0.001063)
 15:    171.42   0.000468    2.37  0.000853  (-0.024844 -0.012719 -0.008582)
 16:    187.27   0.000168    0.85  0.000280  (-0.003017  0.013860 -0.008884)
 17:    202.61   0.000351    1.78  0.000541  ( 0.018798  0.008518  0.010737)
 18:    210.23   0.000208    1.05  0.000309  (-0.014397 -0.006434 -0.007774)
 19:    231.44   0.000155    0.78  0.000209  ( 0.008436 -0.010740 -0.004780)
 20:    238.03   0.001192    6.02  0.001563  ( 0.013345  0.028725  0.023661)
 21:    266.88   0.000316    1.60  0.000370  (-0.014138  0.004195 -0.012341)
 22:    277.68   0.000223    1.13  0.000250  ( 0.011722 -0.005259  0.009240)
 23:    314.81   0.000932    4.71  0.000924  (-0.008856 -0.023375  0.017294)
 24:    323.52   0.000148    0.75  0.000142  (-0.000372  0.008123  0.008731)
 25:    351.11   0.000551    2.78  0.000490  ( 0.005791  0.020844  0.004655)
 26:    405.95   0.000730    3.69  0.000561  (-0.008884  0.017110 -0.013755)
 27:    417.99   0.000077    0.39  0.000057  (-0.005117 -0.005239  0.001943)
 28:    441.55   0.000491    2.48  0.000347  (-0.004423 -0.018057  0.001211)
 29:    457.79   0.001729    8.74  0.001179  (-0.025505  0.019574 -0.012037)
 30:    515.53   0.000581    2.94  0.000352  ( 0.007892  0.016938  0.001642)
 31:    550.56   0.003950   19.96  0.002239  ( 0.037954 -0.015107  0.023880)
 32:    576.54   0.002807   14.19  0.001519  (-0.018195  0.021636  0.026837)
 33:    593.97   0.000555    2.80  0.000292  ( 0.014328 -0.009287  0.000075)
 34:    615.16   0.004720   23.85  0.002394  ( 0.016598  0.045992 -0.001913)
 35:    629.76   0.000118    0.60  0.000058  (-0.003334  0.004881 -0.004854)
 36:    636.88   0.000157    0.79  0.000077  ( 0.000022  0.007436 -0.004660)
 37:    683.09   0.001016    5.14  0.000464  ( 0.019562  0.008893 -0.001614)
 38:    721.08   0.007101   35.89  0.003073  ( 0.043147 -0.034797  0.000801)
 39:    759.97   0.001706    8.62  0.000700  ( 0.019799  0.017510 -0.001366)
 40:    778.98   0.003096   15.64  0.001240  (-0.008399  0.034005  0.003642)
 41:    793.69   0.000090    0.46  0.000036  (-0.000737 -0.005209 -0.002803)
 42:    816.02   0.003459   17.48  0.001323  (-0.035676 -0.003922  0.005876)
 43:    871.00   0.000045    0.23  0.000016  ( 0.001904 -0.000879 -0.003413)
 44:    929.13   0.000062    0.31  0.000021  (-0.003610  0.002520 -0.001192)
 45:    937.40   0.001442    7.29  0.000480  ( 0.019109 -0.010426 -0.002465)
 46:    980.03   0.000101    0.51  0.000032  (-0.004549  0.001397  0.003102)
 47:   1000.63   0.002270   11.47  0.000708  ( 0.012164  0.023574  0.002028)
 48:   1005.06   0.000553    2.80  0.000172  (-0.008497  0.009682 -0.002414)
 49:   1012.90   0.005775   29.19  0.001779  ( 0.006517 -0.021006  0.035994)
 50:   1018.32   0.000077    0.39  0.000024  ( 0.004297 -0.001926 -0.001225)
 51:   1028.00   0.001735    8.77  0.000527  (-0.002673 -0.019801  0.011288)
 52:   1059.58   0.000578    2.92  0.000170  (-0.009539  0.008378  0.003004)
 53:   1061.09   0.002400   12.13  0.000706  (-0.011945 -0.022451 -0.007685)
 54:   1066.50   0.000547    2.77  0.000160  (-0.004585  0.007005 -0.009491)
 55:   1088.83   0.002819   14.25  0.000808  (-0.018925 -0.014523 -0.015455)
 56:   1092.05   0.000716    3.62  0.000204  (-0.013743  0.003338  0.002108)
 57:   1103.29   0.000621    3.14  0.000176  (-0.004232  0.005457 -0.011308)
 58:   1139.12   0.000376    1.90  0.000103  (-0.008567 -0.000497  0.005414)
 59:   1151.79   0.002193   11.08  0.000594  (-0.017541  0.014862  0.008098)
 60:   1181.09   0.001443    7.29  0.000381  ( 0.013662  0.013068 -0.004895)
 61:   1193.66   0.000010    0.05  0.000003  (-0.000278 -0.000107  0.001584)
 62:   1195.26   0.009118   46.08  0.002381  ( 0.013270  0.039952 -0.024664)
 63:   1209.51   0.016679   84.29  0.004303  (-0.062456  0.006755 -0.018894)
 64:   1219.30   0.000373    1.88  0.000095  ( 0.006529 -0.003475  0.006380)
 65:   1243.40   0.006349   32.08  0.001593  ( 0.035987  0.015634  0.007346)
 66:   1295.17   0.005050   25.52  0.001217  (-0.005731  0.033878  0.006014)
 67:   1304.06   0.005498   27.78  0.001316  ( 0.028141 -0.022142  0.005786)
 68:   1331.92   0.027153  137.22  0.006362  (-0.040067 -0.024218 -0.064576)
 69:   1338.67   0.000775    3.92  0.000181  (-0.009661 -0.007142  0.006021)
 70:   1371.29   0.000092    0.47  0.000021  (-0.003957  0.000282 -0.002296)
 71:   1387.60   0.002057   10.40  0.000463  (-0.017315  0.000082  0.012762)
 72:   1414.21   0.000317    1.60  0.000070  ( 0.005796  0.002366 -0.005543)
 73:   1425.77   0.002303   11.64  0.000504  ( 0.017704 -0.007914  0.011312)
 74:   1438.79   0.001931    9.76  0.000419  ( 0.010929  0.017294  0.000627)
 75:   1445.63   0.012547   63.41  0.002709  ( 0.005618  0.040300 -0.032447)
 76:   1453.51   0.015370   77.67  0.003300  (-0.037050  0.007555 -0.043245)
 77:   1462.03   0.013568   68.57  0.002896  ( 0.017174  0.045158  0.023703)
 78:   1494.45   0.002021   10.21  0.000422  ( 0.018654  0.005413  0.006682)
 79:   1503.86   0.000618    3.12  0.000128  (-0.003444  0.009114 -0.005779)
 80:   1505.82   0.002561   12.94  0.000531  ( 0.009098 -0.014211 -0.015686)
 81:   1513.22   0.003872   19.57  0.000799  ( 0.009450 -0.025083  0.008953)
 82:   1520.80   0.001102    5.57  0.000226  ( 0.004182 -0.007385 -0.012415)
 83:   1521.72   0.004413   22.30  0.000905  ( 0.026922  0.013398  0.000863)
 84:   1523.49   0.001096    5.54  0.000224  (-0.001063 -0.010865 -0.010259)
 85:   1530.47   0.004143   20.94  0.000845  (-0.014381 -0.007925 -0.023984)
 86:   1534.38   0.002371   11.98  0.000482  (-0.016736  0.013775  0.003525)
 87:   1537.53   0.001610    8.14  0.000327  (-0.007761  0.005536 -0.015359)
 88:   1547.99   0.002258   11.41  0.000455  (-0.014747 -0.015393  0.000842)
 89:   1562.09   0.007613   38.47  0.001521  (-0.008125  0.031199 -0.021944)
 90:   1644.88   0.000639    3.23  0.000121  ( 0.002112 -0.007634 -0.007653)
 91:   1666.07   0.000644    3.25  0.000121  ( 0.009558  0.005350 -0.000747)
 92:   1745.11   0.046465  234.82  0.008309  (-0.022429  0.050620  0.072412)
 93:   1757.89   0.056306  284.55  0.009996  ( 0.077250  0.033739 -0.053756)
 94:   3031.04   0.007908   39.96  0.000814  ( 0.015502 -0.022136  0.009158)
 95:   3041.58   0.007944   40.14  0.000815  (-0.010589 -0.014749  0.022030)
 96:   3053.57   0.000721    3.64  0.000074  ( 0.003901 -0.005347 -0.005464)
 97:   3058.35   0.005193   26.24  0.000530  (-0.000918  0.005408 -0.022357)
 98:   3071.24   0.000747    3.78  0.000076  (-0.007230  0.002134 -0.004368)
 99:   3080.11   0.007422   37.51  0.000752  (-0.004103 -0.019727 -0.018601)
100:   3095.90   0.004615   23.32  0.000465  (-0.001003 -0.021310 -0.003167)
101:   3098.10   0.001704    8.61  0.000172  ( 0.008431  0.006278 -0.007818)
102:   3115.68   0.004041   20.42  0.000405  ( 0.003694  0.016486  0.010921)
103:   3129.93   0.004331   21.89  0.000432  ( 0.020082  0.005305 -0.000642)
104:   3136.73   0.002778   14.04  0.000276  (-0.012751  0.010665 -0.000108)
105:   3140.94   0.001611    8.14  0.000160  ( 0.005278  0.011204 -0.002591)
106:   3172.98   0.000957    4.84  0.000094  ( 0.001247  0.005289  0.008039)
107:   3181.56   0.000192    0.97  0.000019  ( 0.003068  0.001963 -0.002352)
108:   3189.40   0.001121    5.66  0.000110  (-0.004100 -0.003736 -0.008881)
109:   3191.13   0.000248    1.25  0.000024  (-0.004465  0.002038 -0.000370)
110:   3198.87   0.003311   16.73  0.000323  (-0.009915 -0.011397  0.009739)
111:   3204.98   0.004338   21.92  0.000422  (-0.000375 -0.001460 -0.020496)
112:   3211.60   0.003379   17.07  0.000328  ( 0.013921  0.011596  0.000218)
113:   3217.40   0.000505    2.55  0.000049  ( 0.002033  0.001245 -0.006578)

--------------------------
THERMOCHEMISTRY AT 298.15K
--------------------------

Temperature         ... 298.15 K
Pressure            ... 1.00 atm
Total Mass          ... 248.33 AMU

Throughout the following assumptions are being made:
  (1) The electronic state is orbitally nondegenerate
  (2) There are no thermally accessible electronically excited states
  (3) Hindered rotations indicated by low frequency modes are not
      treated as such but are treated as vibrations and this may
      cause some error
  (4) All equations used are the standard statistical mechanics
      equations for an ideal gas
  (5) All vibrations are strictly harmonic

freq.      35.76  E(vib)   ...       0.54
freq.      46.74  E(vib)   ...       0.53
freq.      53.19  E(vib)   ...       0.52
freq.      67.39  E(vib)   ...       0.50
freq.      73.77  E(vib)   ...       0.49
freq.      93.48  E(vib)   ...       0.47
freq.     105.53  E(vib)   ...       0.45
freq.     116.54  E(vib)   ...       0.44
freq.     153.85  E(vib)   ...       0.40
freq.     171.42  E(vib)   ...       0.38
freq.     187.27  E(vib)   ...       0.36
freq.     202.61  E(vib)   ...       0.35
freq.     210.23  E(vib)   ...       0.34
freq.     231.44  E(vib)   ...       0.32
freq.     238.03  E(vib)   ...       0.32
freq.     266.88  E(vib)   ...       0.29
freq.     277.68  E(vib)   ...       0.28
freq.     314.81  E(vib)   ...       0.25
freq.     323.52  E(vib)   ...       0.25
freq.     351.11  E(vib)   ...       0.23
freq.     405.95  E(vib)   ...       0.19
freq.     417.99  E(vib)   ...       0.18
freq.     441.55  E(vib)   ...       0.17
freq.     457.79  E(vib)   ...       0.16
freq.     515.53  E(vib)   ...       0.13
freq.     550.56  E(vib)   ...       0.12
freq.     576.54  E(vib)   ...       0.11
freq.     593.97  E(vib)   ...       0.10
freq.     615.16  E(vib)   ...       0.10
freq.     629.76  E(vib)   ...       0.09
freq.     636.88  E(vib)   ...       0.09
freq.     683.09  E(vib)   ...       0.08
freq.     721.08  E(vib)   ...       0.07
freq.     759.97  E(vib)   ...       0.06
freq.     778.98  E(vib)   ...       0.05
freq.     793.69  E(vib)   ...       0.05
freq.     816.02  E(vib)   ...       0.05
freq.     871.00  E(vib)   ...       0.04
freq.     929.13  E(vib)   ...       0.03
freq.     937.40  E(vib)   ...       0.03
freq.     980.03  E(vib)   ...       0.02
freq.    1000.63  E(vib)   ...       0.02
freq.    1005.06  E(vib)   ...       0.02
freq.    1012.90  E(vib)   ...       0.02
freq.    1018.32  E(vib)   ...       0.02
freq.    1028.00  E(vib)   ...       0.02
freq.    1059.58  E(vib)   ...       0.02
freq.    1061.09  E(vib)   ...       0.02
freq.    1066.50  E(vib)   ...       0.02
freq.    1088.83  E(vib)   ...       0.02
freq.    1092.05  E(vib)   ...       0.02
freq.    1103.29  E(vib)   ...       0.02
freq.    1139.12  E(vib)   ...       0.01
freq.    1151.79  E(vib)   ...       0.01
freq.    1181.09  E(vib)   ...       0.01
freq.    1193.66  E(vib)   ...       0.01
freq.    1195.26  E(vib)   ...       0.01
freq.    1209.51  E(vib)   ...       0.01
freq.    1219.30  E(vib)   ...       0.01
freq.    1243.40  E(vib)   ...       0.01
freq.    1295.17  E(vib)   ...       0.01
freq.    1304.06  E(vib)   ...       0.01
freq.    1331.92  E(vib)   ...       0.01
freq.    1338.67  E(vib)   ...       0.01
freq.    1371.29  E(vib)   ...       0.01
freq.    1387.60  E(vib)   ...       0.00
freq.    1414.21  E(vib)   ...       0.00
freq.    1425.77  E(vib)   ...       0.00
freq.    1438.79  E(vib)   ...       0.00
freq.    1445.63  E(vib)   ...       0.00
freq.    1453.51  E(vib)   ...       0.00
freq.    1462.03  E(vib)   ...       0.00
freq.    1494.45  E(vib)   ...       0.00
freq.    1503.86  E(vib)   ...       0.00
freq.    1505.82  E(vib)   ...       0.00
freq.    1513.22  E(vib)   ...       0.00
freq.    1520.80  E(vib)   ...       0.00
freq.    1521.72  E(vib)   ...       0.00
freq.    1523.49  E(vib)   ...       0.00
freq.    1530.47  E(vib)   ...       0.00
freq.    1534.38  E(vib)   ...       0.00
freq.    1537.53  E(vib)   ...       0.00
freq.    1547.99  E(vib)   ...       0.00
freq.    1562.09  E(vib)   ...       0.00
freq.    1644.88  E(vib)   ...       0.00
freq.    1666.07  E(vib)   ...       0.00
freq.    1745.11  E(vib)   ...       0.00
freq.    1757.89  E(vib)   ...       0.00
freq.    3031.04  E(vib)   ...       0.00
freq.    3041.58  E(vib)   ...       0.00
freq.    3053.57  E(vib)   ...       0.00
freq.    3058.35  E(vib)   ...       0.00
freq.    3071.24  E(vib)   ...       0.00
freq.    3080.11  E(vib)   ...       0.00
freq.    3095.90  E(vib)   ...       0.00
freq.    3098.10  E(vib)   ...       0.00
freq.    3115.68  E(vib)   ...       0.00
freq.    3129.93  E(vib)   ...       0.00
freq.    3136.73  E(vib)   ...       0.00
freq.    3140.94  E(vib)   ...       0.00
freq.    3172.98  E(vib)   ...       0.00
freq.    3181.56  E(vib)   ...       0.00
freq.    3189.40  E(vib)   ...       0.00
freq.    3191.13  E(vib)   ...       0.00
freq.    3198.87  E(vib)   ...       0.00
freq.    3204.98  E(vib)   ...       0.00
freq.    3211.60  E(vib)   ...       0.00
freq.    3217.40  E(vib)   ...       0.00

------------
INNER ENERGY
------------

The inner energy is: U= E(el) + E(ZPE) + E(vib) + E(rot) + E(trans)
    E(el)   - is the total energy from the electronic structure calculation
              = E(kin-el) + E(nuc-el) + E(el-el) + E(nuc-nuc)
    E(ZPE)  - the the zero temperature vibrational energy from the frequency calculation
    E(vib)  - the the finite temperature correction to E(ZPE) due to population
              of excited vibrational states
    E(rot)  - is the rotational thermal energy
    E(trans)- is the translational thermal energy

Summary of contributions to the inner energy U:
Electronic energy                ...   -805.06740021 Eh
Zero point energy                ...      0.32601077 Eh     204.57 kcal/mol
Thermal vibrational correction   ...      0.01598861 Eh      10.03 kcal/mol
Thermal rotational correction    ...      0.00141627 Eh       0.89 kcal/mol
Thermal translational correction ...      0.00141627 Eh       0.89 kcal/mol
-----------------------------------------------------------------------
Total thermal energy                   -804.72256828 Eh

Summary of corrections to the electronic energy:
(perhaps to be used in another calculation)
Total thermal correction                  0.01882115 Eh      11.81 kcal/mol
Non-thermal (ZPE) correction              0.32601077 Eh     204.57 kcal/mol
-----------------------------------------------------------------------
Total correction                          0.34483192 Eh     216.38 kcal/mol

--------
ENTHALPY
--------

Rotational constants in cm-1:     0.019082     0.011110     0.009380

                             ****ORCA TERMINATED NORMALLY****
TOTAL RUN TIME: 0 days 0 hours 43 minutes 47 seconds 303 msec
