                         Program Version 5.0.4 -  RELEASE  -
|  1> ! OPT FREQ B3LYP 6-31+G(d) D4 AUTOAUX
|  2> ! CPCM
|  3>
|  4> %cpcm
|  5> epsilon 9.8629
|  6> refrac  1.4295
|  7> end
|  8>
|  9> %PAL NPROCS 4 END
| 10>
| 11> %maxcore 3375
| 12>
| 13> *xyzfile 1 1 /users/fjb15167/WWenergy/structures/Nkeqm.xyz
| 14>
| 15>                          ****END OF INPUT****
 Total Charge           Charge          ....    1
 Multiplicity           Mult            ....    1
 Number of Electrons    NEL             ....  126
Dispersion correction           -0.064735130
FINAL SINGLE POINT ENERGY      -747.808558223982
Dispersion correction            ... Starting D4
Dispersion correction           -0.063352854
FINAL SINGLE POINT ENERGY      -747.811955267434
Dispersion correction            ... Starting D4
Dispersion correction           -0.063333170
FINAL SINGLE POINT ENERGY      -747.812962524598
Dispersion correction            ... Starting D4
FINAL SINGLE POINT ENERGY      -747.813654155827
FINAL SINGLE POINT ENERGY      -747.814043275639
FINAL SINGLE POINT ENERGY      -747.814417012893
FINAL SINGLE POINT ENERGY      -747.814695999490
FINAL SINGLE POINT ENERGY      -747.814838610051
FINAL SINGLE POINT ENERGY      -747.814914691819
FINAL SINGLE POINT ENERGY      -747.814975641946
FINAL SINGLE POINT ENERGY      -747.814834948281
FINAL SINGLE POINT ENERGY      -747.815017578111
Dispersion correction           -0.062482201
FINAL SINGLE POINT ENERGY      -747.815031370763
Dispersion correction            ... Starting D4
Dispersion correction           -0.062480973
FINAL SINGLE POINT ENERGY      -747.815032477329
Dispersion correction            ... Starting D4
                    ***********************HURRAY********************

CARTESIAN COORDINATES (ANGSTROEM)
---------------------------------
  C      1.256112    2.981827    0.182847
  H      1.317203    3.144889   -0.900134
  H      2.247034    2.673711    0.533219
  H      0.982916    3.922475    0.664207
  C      0.197459    1.952162    0.519603
  O     -0.818509    2.254816    1.164995
  N      0.381891    0.672718    0.074218
  C      1.575454    0.231144   -0.623575
  H      1.299266   -0.599719   -1.280502
  H      1.946341    1.027673   -1.272024
  C     -0.571216   -0.348822    0.501936
  H     -0.048385   -1.306137    0.538663
  H     -0.914213   -0.103153    1.507926
  C     -1.730023   -0.383754   -0.501961
  H     -2.145618    0.617093   -0.630953
  H     -1.377278   -0.751211   -1.469186
  C      2.678785   -0.217695    0.359443
  N      3.827259   -0.691821   -0.179653
  O      2.481897   -0.138420    1.581230
  C      4.945438   -1.059155    0.687932
  H      5.321610   -2.046596    0.398433
  H      5.759075   -0.328914    0.585929
  H      4.609774   -1.083136    1.723727
  C      4.130534   -0.691003   -1.610413
  H      4.658670   -1.617396   -1.858762
  H      3.225726   -0.645901   -2.215086
  H      4.776119    0.158939   -1.869243
  N     -2.894859   -1.277173   -0.107157
  C     -2.426405   -2.678029    0.184744
  H     -1.853570   -3.037910   -0.671684
  H     -1.810334   -2.671521    1.083894
  C     -3.858225   -1.316520   -1.265864
  H     -4.171941   -0.295658   -1.489402
  H     -3.349662   -1.756157   -2.125339
  C     -3.614771   -0.721340    1.095032
  H     -3.943998    0.292517    0.861867
  H     -2.941461   -0.715776    1.950980
  H     -4.717411   -1.925097   -0.979549
  H     -3.305960   -3.303714    0.342898
  H     -4.472724   -1.363238    1.301763

 Multiplicity           Mult            ....    1
 Number of Electrons    NEL             ....  126
 Basis Dimension        Dim             ....  336

ORBITAL ENERGIES
----------------

  NO   OCC          E(Eh)            E(eV)
   0   2.0000     -19.136702      -520.7361
   1   2.0000     -19.134797      -520.6843
   2   2.0000     -14.482898      -394.0997
   3   2.0000     -14.386477      -391.4759
   4   2.0000     -14.382867      -391.3777
   5   2.0000     -10.306699      -280.4595
   6   2.0000     -10.304346      -280.3955
   7   2.0000     -10.255135      -279.0564
   8   2.0000     -10.246196      -278.8132
   9   2.0000     -10.245682      -278.7992
  10   2.0000     -10.244514      -278.7674
  11   2.0000     -10.243734      -278.7462
  12   2.0000     -10.241885      -278.6959
  13   2.0000     -10.221516      -278.1416
  14   2.0000     -10.212469      -277.8954
  15   2.0000     -10.189702      -277.2759
  16   2.0000      -1.058960       -28.8158
  17   2.0000      -1.050189       -28.5771
  18   2.0000      -1.037745       -28.2385
  19   2.0000      -0.959509       -26.1096
  20   2.0000      -0.950985       -25.8776
  21   2.0000      -0.808727       -22.0066
  22   2.0000      -0.767809       -20.8931
  23   2.0000      -0.766322       -20.8527
  24   2.0000      -0.765123       -20.8201
  25   2.0000      -0.749395       -20.3921
  26   2.0000      -0.729163       -19.8415
  27   2.0000      -0.702955       -19.1284
  28   2.0000      -0.689758       -18.7693
  29   2.0000      -0.636335       -17.3156
  30   2.0000      -0.584037       -15.8925
  31   2.0000      -0.556635       -15.1468
  32   2.0000      -0.545133       -14.8338
  33   2.0000      -0.543831       -14.7984
  34   2.0000      -0.531432       -14.4610
  35   2.0000      -0.519898       -14.1471
  36   2.0000      -0.515309       -14.0223
  37   2.0000      -0.504877       -13.7384
  38   2.0000      -0.485755       -13.2181
  39   2.0000      -0.478445       -13.0191
  40   2.0000      -0.470727       -12.8091
  41   2.0000      -0.465839       -12.6761
  42   2.0000      -0.454137       -12.3577
  43   2.0000      -0.438823       -11.9410
  44   2.0000      -0.436228       -11.8704
  45   2.0000      -0.428172       -11.6511
  46   2.0000      -0.422657       -11.5011
  47   2.0000      -0.421817       -11.4782
  48   2.0000      -0.421085       -11.4583
  49   2.0000      -0.420462       -11.4413
  50   2.0000      -0.416174       -11.3247
  51   2.0000      -0.411045       -11.1851
  52   2.0000      -0.410134       -11.1603
  53   2.0000      -0.408503       -11.1159
  54   2.0000      -0.406923       -11.0729
  55   2.0000      -0.391831       -10.6623
  56   2.0000      -0.386888       -10.5277
  57   2.0000      -0.376057       -10.2330
  58   2.0000      -0.367267        -9.9938
  59   2.0000      -0.283806        -7.7228
  60   2.0000      -0.277609        -7.5541
  61   2.0000      -0.267511        -7.2793
  62   2.0000      -0.260071        -7.0769
  63   0.0000      -0.011338        -0.3085
  64   0.0000      -0.004701        -0.1279
  65   0.0000       0.000658         0.0179
  66   0.0000       0.003168         0.0862
  67   0.0000       0.008950         0.2435

MULLIKEN ATOMIC CHARGES
-----------------------
   0 C :   -0.914643
   1 H :    0.258892
   2 H :    0.261536
   3 H :    0.247164
   4 C :    0.825062
   5 O :   -0.588378
   6 N :    0.007480
   7 C :   -1.109730
   8 H :    0.273241
   9 H :    0.279253
  10 C :   -0.599715
  11 H :    0.256438
  12 H :    0.261548
  13 C :   -0.077581
  14 H :    0.287740
  15 H :    0.274885
  16 C :    0.748118
  17 N :   -0.119298
  18 O :   -0.568897
  19 C :   -0.581659
  20 H :    0.227532
  21 H :    0.231420
  22 H :    0.247201
  23 C :   -0.502543
  24 H :    0.229193
  25 H :    0.229349
  26 H :    0.236353
  27 N :   -0.610562
  28 C :   -0.429253
  29 H :    0.282100
  30 H :    0.280764
  31 C :   -0.400893
  32 H :    0.279472
  33 H :    0.277031
  34 C :   -0.395760
  35 H :    0.281802
  36 H :    0.278304
  37 H :    0.278932
  38 H :    0.279275
  39 H :    0.278826
Sum of atomic charges:    1.0000000

LOEWDIN ATOMIC CHARGES
----------------------
   0 C :   -0.459933
   1 H :    0.225827
   2 H :    0.229046
   3 H :    0.220454
   4 C :    0.118613
   5 O :   -0.449114
   6 N :   -0.295250
   7 C :   -0.243549
   8 H :    0.249178
   9 H :    0.251945
  10 C :   -0.242011
  11 H :    0.239582
  12 H :    0.250134
  13 C :   -0.259119
  14 H :    0.256222
  15 H :    0.248855
  16 C :    0.105399
  17 N :   -0.323632
  18 O :   -0.433646
  19 C :   -0.350019
  20 H :    0.208749
  21 H :    0.210301
  22 H :    0.231456
  23 C :   -0.355880
  24 H :    0.212671
  25 H :    0.217328
  26 H :    0.212130
  27 N :   -0.331367
  28 C :   -0.363045
  29 H :    0.240905
  30 H :    0.239283
  31 C :   -0.361763
  32 H :    0.237946
  33 H :    0.236542
  34 C :   -0.362114
  35 H :    0.240624
  36 H :    0.238361
  37 H :    0.235269
  38 H :    0.237123
  39 H :    0.236502

  Mayer bond orders larger than 0.100000
B(  0-C ,  1-H ) :   0.9450 B(  0-C ,  2-H ) :   0.9501 B(  0-C ,  3-H ) :   1.0004
B(  0-C ,  4-C ) :   0.3844 B(  0-C ,  6-N ) :  -0.1331 B(  0-C ,  7-C ) :  -0.1210
B(  4-C ,  5-O ) :   1.6619 B(  4-C ,  6-N ) :   1.2106 B(  4-C ,  7-C ) :   0.1483
B(  5-O ,  7-C ) :   0.1144 B(  5-O , 10-C ) :  -0.1409 B(  6-N ,  7-C ) :   0.9327
B(  6-N , 10-C ) :   0.7631 B(  7-C ,  8-H ) :   0.9789 B(  7-C ,  9-H ) :   0.9982
B(  7-C , 16-C ) :   0.4587 B(  7-C , 17-N ) :  -0.1484 B( 10-C , 11-H ) :   1.0235
B( 10-C , 12-H ) :   1.0402 B( 10-C , 13-C ) :   0.5051 B( 11-H , 13-C ) :  -0.1044
B( 13-C , 14-H ) :   0.9149 B( 13-C , 15-H ) :   0.9382 B( 13-C , 27-N ) :   0.8928
B( 13-C , 28-C ) :  -0.1274 B( 13-C , 31-C ) :  -0.1112 B( 13-C , 34-C ) :  -0.1247
B( 16-C , 17-N ) :   1.3147 B( 16-C , 18-O ) :   1.8145 B( 17-N , 19-C ) :   0.8392
B( 17-N , 23-C ) :   0.8244 B( 19-C , 20-H ) :   0.9312 B( 19-C , 21-H ) :   0.9398
B( 19-C , 22-H ) :   0.9458 B( 23-C , 24-H ) :   0.9297 B( 23-C , 25-H ) :   0.9326
B( 23-C , 26-H ) :   0.9303 B( 27-N , 28-C ) :   0.9048 B( 27-N , 31-C ) :   0.8860
B( 27-N , 34-C ) :   0.9201 B( 28-C , 29-H ) :   0.9075 B( 28-C , 30-H ) :   0.9046
B( 28-C , 31-C ) :  -0.1454 B( 28-C , 34-C ) :  -0.1657 B( 28-C , 38-H ) :   0.9106
B( 31-C , 32-H ) :   0.9103 B( 31-C , 33-H ) :   0.9125 B( 31-C , 34-C ) :  -0.1494
B( 31-C , 37-H ) :   0.9065 B( 34-C , 35-H ) :   0.9163 B( 34-C , 36-H ) :   0.9022
B( 34-C , 39-H ) :   0.9064

Dispersion correction           -0.062480699
FINAL SINGLE POINT ENERGY      -747.815031163641

DIPOLE MOMENT
-------------
                                X             Y             Z
Electronic contribution:      3.19914       5.26876       4.43228
Nuclear contribution   :     -6.50152      -8.69855      -7.84188
                        -----------------------------------------
Total Dipole Moment    :     -3.30237      -3.42980      -3.40960
                        -----------------------------------------
Magnitude (a.u.)       :      5.85616
Magnitude (Debye)      :     14.88516

Dispersion correction in the Hessian             ... Starting D4

VIBRATIONAL FREQUENCIES
-----------------------

Scaling factor for frequencies =  1.000000000  (already applied!)

   0:         0.00 cm**-1
   1:         0.00 cm**-1
   2:         0.00 cm**-1
   3:         0.00 cm**-1
   4:         0.00 cm**-1
   5:         0.00 cm**-1
   6:        20.70 cm**-1
   7:        28.73 cm**-1
   8:        34.99 cm**-1
   9:        44.62 cm**-1
  10:        49.80 cm**-1
  11:        69.20 cm**-1
  12:        84.67 cm**-1
  13:       102.74 cm**-1
  14:       119.99 cm**-1
  15:       127.50 cm**-1
  16:       182.42 cm**-1
  17:       183.80 cm**-1
  18:       217.14 cm**-1
  19:       239.42 cm**-1
  20:       247.01 cm**-1
  21:       260.87 cm**-1
  22:       308.09 cm**-1
  23:       319.45 cm**-1
  24:       327.39 cm**-1
  25:       368.37 cm**-1
  26:       374.45 cm**-1
  27:       383.08 cm**-1
  28:       403.95 cm**-1
  29:       429.33 cm**-1
  30:       460.46 cm**-1
  31:       467.78 cm**-1
  32:       478.67 cm**-1
  33:       491.18 cm**-1
  34:       546.68 cm**-1
  35:       578.15 cm**-1
  36:       597.72 cm**-1
  37:       609.38 cm**-1
  38:       655.41 cm**-1
  39:       767.47 cm**-1
  40:       776.99 cm**-1
  41:       803.30 cm**-1
  42:       834.70 cm**-1
  43:       926.74 cm**-1
  44:       956.79 cm**-1
  45:       966.66 cm**-1
  46:       976.70 cm**-1
  47:       992.83 cm**-1
  48:      1004.23 cm**-1
  49:      1058.51 cm**-1
  50:      1065.46 cm**-1
  51:      1069.53 cm**-1
  52:      1080.97 cm**-1
  53:      1098.52 cm**-1
  54:      1116.82 cm**-1
  55:      1126.76 cm**-1
  56:      1158.52 cm**-1
  57:      1165.88 cm**-1
  58:      1176.99 cm**-1
  59:      1178.70 cm**-1
  60:      1228.33 cm**-1
  61:      1271.59 cm**-1
  62:      1274.83 cm**-1
  63:      1279.85 cm**-1
  64:      1299.58 cm**-1
  65:      1311.16 cm**-1
  66:      1350.37 cm**-1
  67:      1380.53 cm**-1
  68:      1388.34 cm**-1
  69:      1391.08 cm**-1
  70:      1410.72 cm**-1
  71:      1441.73 cm**-1
  72:      1447.42 cm**-1
  73:      1450.72 cm**-1
  74:      1467.13 cm**-1
  75:      1470.90 cm**-1
  76:      1473.55 cm**-1
  77:      1478.90 cm**-1
  78:      1485.90 cm**-1
  79:      1489.03 cm**-1
  80:      1494.38 cm**-1
  81:      1496.67 cm**-1
  82:      1497.45 cm**-1
  83:      1499.54 cm**-1
  84:      1499.66 cm**-1
  85:      1503.30 cm**-1
  86:      1505.19 cm**-1
  87:      1512.58 cm**-1
  88:      1518.15 cm**-1
  89:      1526.79 cm**-1
  90:      1527.30 cm**-1
  91:      1530.93 cm**-1
  92:      1537.98 cm**-1
  93:      1552.04 cm**-1
  94:      1672.84 cm**-1
  95:      1684.14 cm**-1
  96:      3041.00 cm**-1
  97:      3045.42 cm**-1
  98:      3060.75 cm**-1
  99:      3094.29 cm**-1
 100:      3096.99 cm**-1
 101:      3099.23 cm**-1
 102:      3102.45 cm**-1
 103:      3102.87 cm**-1
 104:      3108.40 cm**-1
 105:      3110.40 cm**-1
 106:      3116.26 cm**-1
 107:      3123.92 cm**-1
 108:      3145.52 cm**-1
 109:      3160.11 cm**-1
 110:      3166.80 cm**-1
 111:      3177.57 cm**-1
 112:      3185.89 cm**-1
 113:      3189.47 cm**-1
 114:      3193.03 cm**-1
 115:      3193.39 cm**-1
 116:      3198.67 cm**-1
 117:      3199.43 cm**-1
 118:      3201.28 cm**-1
 119:      3211.49 cm**-1

IR SPECTRUM
-----------

 Mode   freq       eps      Int      T**2         TX        TY        TZ
       cm**-1   L/(mol*cm) km/mol    a.u.
----------------------------------------------------------------------------
  6:     20.70   0.000821    4.15  0.012380  ( 0.016275 -0.109272 -0.013222)
  7:     28.73   0.000736    3.72  0.007989  (-0.035155 -0.072465 -0.038759)
  8:     34.99   0.000490    2.48  0.004373  (-0.032622 -0.055650 -0.014539)
  9:     44.62   0.001169    5.91  0.008172  ( 0.067836  0.057079  0.017677)
 10:     49.80   0.000675    3.41  0.004229  ( 0.044227  0.025127  0.040519)
 11:     69.20   0.000303    1.53  0.001365  (-0.005694 -0.035913 -0.006509)
 12:     84.67   0.000403    2.04  0.001484  ( 0.036812  0.010057  0.005292)
 13:    102.74   0.001745    8.82  0.005300  (-0.019692  0.025714 -0.065200)
 14:    119.99   0.000561    2.83  0.001459  (-0.001273 -0.037248 -0.008344)
 15:    127.50   0.001943    9.82  0.004755  ( 0.037324  0.057910 -0.002852)
 16:    182.42   0.000312    1.57  0.000533  ( 0.016397 -0.002727  0.016019)
 17:    183.80   0.002089   10.56  0.003547  ( 0.044509 -0.000524  0.039565)
 18:    217.14   0.000855    4.32  0.001228  ( 0.030447 -0.009196 -0.014717)
 19:    239.42   0.001633    8.25  0.002128  ( 0.000722 -0.044516 -0.012091)
 20:    247.01   0.000023    0.12  0.000029  ( 0.002538  0.004486 -0.001689)
 21:    260.87   0.000182    0.92  0.000218  ( 0.011177  0.009445  0.001881)
 22:    308.09   0.000116    0.59  0.000118  ( 0.000767  0.008157  0.007101)
 23:    319.45   0.000038    0.19  0.000037  ( 0.004277  0.002496  0.003503)
 24:    327.39   0.001151    5.82  0.001098  ( 0.019201  0.022582  0.014795)
 25:    368.37   0.000241    1.22  0.000204  (-0.012414 -0.002667 -0.006534)
 26:    374.45   0.000138    0.70  0.000115  ( 0.003505  0.008841  0.004982)
 27:    383.08   0.003781   19.11  0.003080  (-0.048233  0.027245 -0.003419)
 28:    403.95   0.000985    4.98  0.000761  (-0.009923  0.025592  0.002685)
 29:    429.33   0.001627    8.22  0.001183  (-0.019197 -0.028474  0.001803)
 30:    460.46   0.000855    4.32  0.000580  (-0.002720  0.009307 -0.022037)
 31:    467.78   0.000448    2.26  0.000299  (-0.010557 -0.013623 -0.001266)
 32:    478.67   0.000250    1.26  0.000163  ( 0.005918  0.004206  0.010490)
 33:    491.18   0.001020    5.15  0.000648  ( 0.022612  0.007540 -0.008934)
 34:    546.68   0.001796    9.08  0.001025  (-0.017646 -0.026264  0.004914)
 35:    578.15   0.000085    0.43  0.000046  ( 0.001328 -0.004993 -0.004411)
 36:    597.72   0.005647   28.54  0.002948  ( 0.046579 -0.027884 -0.001176)
 37:    609.38   0.001326    6.70  0.000679  ( 0.000803  0.001442 -0.026003)
 38:    655.41   0.003487   17.62  0.001660  (-0.000275  0.026311  0.031114)
 39:    767.47   0.000479    2.42  0.000195  (-0.005255  0.011030  0.006752)
 40:    776.99   0.002444   12.35  0.000982  ( 0.005717 -0.021934 -0.021632)
 41:    803.30   0.002372   11.99  0.000921  (-0.002585  0.014384 -0.026606)
 42:    834.70   0.005991   30.27  0.002240  (-0.022754  0.024394  0.033569)
 43:    926.74   0.014249   72.01  0.004798  ( 0.061234  0.028952  0.014499)
 44:    956.79   0.003400   17.18  0.001109  ( 0.012629 -0.019353 -0.023979)
 45:    966.66   0.000615    3.11  0.000198  ( 0.008822  0.010861  0.001634)
 46:    976.70   0.006301   31.84  0.002013  (-0.003986 -0.039420  0.021057)
 47:    992.83   0.002213   11.18  0.000696  ( 0.006062  0.005863  0.024989)
 48:   1004.23   0.006901   34.88  0.002145  ( 0.001069 -0.045876 -0.006233)
 49:   1058.51   0.007050   35.63  0.002078  ( 0.023094 -0.023060 -0.031832)
 50:   1065.46   0.005689   28.75  0.001666  ( 0.034481 -0.021614  0.003208)
 51:   1069.53   0.000376    1.90  0.000110  (-0.003389  0.009076 -0.003992)
 52:   1080.97   0.003097   15.65  0.000894  (-0.000897 -0.002068  0.029816)
 53:   1098.52   0.000003    0.01  0.000001  ( 0.000407 -0.000765 -0.000225)
 54:   1116.82   0.000018    0.09  0.000005  (-0.001075 -0.001482  0.001316)
 55:   1126.76   0.000450    2.27  0.000125  ( 0.000780  0.001045 -0.011085)
 56:   1158.52   0.037499  189.51  0.010101  (-0.087994  0.034462  0.034212)
 57:   1165.88   0.000601    3.04  0.000161  ( 0.011755 -0.004713  0.000677)
 58:   1176.99   0.000281    1.42  0.000074  ( 0.005133  0.003438  0.006017)
 59:   1178.70   0.003020   15.26  0.000799  (-0.027258  0.006702  0.003397)
 60:   1228.33   0.001514    7.65  0.000385  ( 0.018089  0.005321 -0.005403)
 61:   1271.59   0.014508   73.32  0.003560  (-0.024278  0.054377 -0.003746)
 62:   1274.83   0.003489   17.63  0.000854  ( 0.022568 -0.018477 -0.001813)
 63:   1279.85   0.011659   58.92  0.002843  (-0.041914 -0.029986 -0.013675)
 64:   1299.58   0.020628  104.24  0.004953  (-0.011296  0.066914  0.018660)
 65:   1311.16   0.000116    0.59  0.000028  ( 0.004796 -0.002109 -0.000457)
 66:   1350.37   0.004130   20.87  0.000954  ( 0.000604 -0.027012 -0.014982)
 67:   1380.53   0.007993   40.40  0.001807  (-0.034323  0.012024  0.022005)
 68:   1388.34   0.004652   23.51  0.001046  ( 0.027692  0.015191 -0.006933)
 69:   1391.08   0.008200   41.44  0.001839  ( 0.025181 -0.016571 -0.030509)
 70:   1410.72   0.004342   21.94  0.000960  (-0.024957 -0.016246  0.008579)
 71:   1441.73   0.017901   90.47  0.003875  (-0.053635  0.021916  0.022753)
 72:   1447.42   0.003393   17.15  0.000731  (-0.000327  0.021053  0.016975)
 73:   1450.72   0.008280   41.84  0.001781  (-0.034681  0.014672 -0.019056)
 74:   1467.13   0.010929   55.23  0.002325  ( 0.006603 -0.047533 -0.004665)
 75:   1470.90   0.002185   11.04  0.000464  (-0.005086  0.020483  0.004254)
 76:   1473.55   0.023097  116.72  0.004891  (-0.008491  0.068375  0.012003)
 77:   1478.90   0.005940   30.02  0.001253  ( 0.030005  0.007634 -0.017171)
 78:   1485.90   0.005534   27.96  0.001162  ( 0.002539 -0.012219 -0.031724)
 79:   1489.03   0.003021   15.27  0.000633  ( 0.002379  0.024474  0.005332)
 80:   1494.38   0.000107    0.54  0.000022  (-0.001742 -0.004333  0.000764)
 81:   1496.67   0.002061   10.42  0.000430  ( 0.008136 -0.000560  0.019059)
 82:   1497.45   0.000324    1.64  0.000068  ( 0.007320 -0.003634 -0.000852)
 83:   1499.54   0.001349    6.82  0.000281  ( 0.006696 -0.012967  0.008238)
 84:   1499.66   0.001846    9.33  0.000384  ( 0.007789 -0.006125  0.016910)
 85:   1503.30   0.006680   33.76  0.001387  (-0.000080 -0.035570 -0.011019)
 86:   1505.19   0.005359   27.08  0.001111  (-0.005467  0.017748 -0.027681)
 87:   1512.58   0.008769   44.31  0.001809  ( 0.018845  0.037841  0.004692)
 88:   1518.15   0.001737    8.78  0.000357  (-0.004981  0.015438  0.009694)
 89:   1526.79   0.016019   80.95  0.003274  ( 0.054092 -0.003252  0.018375)
 90:   1527.30   0.005823   29.43  0.001190  (-0.000316  0.019044  0.028757)
 91:   1530.93   0.007102   35.89  0.001448  ( 0.022757  0.024658  0.017938)
 92:   1537.98   0.015670   79.19  0.003179  (-0.019998 -0.042215  0.031582)
 93:   1552.04   0.012116   61.23  0.002436  (-0.038859  0.030426 -0.000550)
 94:   1672.84   0.055617  281.06  0.010375  ( 0.074411 -0.063399 -0.028611)
 95:   1684.14   0.219325  1108.38  0.040640  (-0.116306  0.056051  0.154827)
 96:   3041.00   0.007000   35.38  0.000718  (-0.010212  0.007206 -0.023710)
 97:   3045.42   0.018453   93.25  0.001891  (-0.040028 -0.003564  0.016612)
 98:   3060.75   0.000660    3.33  0.000067  (-0.006097 -0.003062  0.004550)
 99:   3094.29   0.003284   16.60  0.000331  (-0.012686  0.005323  0.011913)
100:   3096.99   0.001359    6.87  0.000137  ( 0.006743 -0.003249  0.008996)
101:   3099.23   0.000782    3.95  0.000079  (-0.000237 -0.007621 -0.004542)
102:   3102.45   0.009335   47.17  0.000939  ( 0.000334 -0.030492 -0.003011)
103:   3102.87   0.001781    9.00  0.000179  ( 0.007356 -0.007181 -0.008568)
104:   3108.40   0.003455   17.46  0.000347  (-0.001745  0.017200  0.006928)
105:   3110.40   0.000604    3.05  0.000061  ( 0.001424  0.007018  0.003048)
106:   3116.26   0.004740   23.96  0.000475  ( 0.000122 -0.018036  0.012222)
107:   3123.92   0.001303    6.59  0.000130  (-0.007344  0.000905 -0.008686)
108:   3145.52   0.000716    3.62  0.000071  ( 0.006965  0.004548 -0.001350)
109:   3160.11   0.000395    2.00  0.000039  ( 0.004415  0.001485 -0.004160)
110:   3166.80   0.002242   11.33  0.000221  (-0.005694  0.012719  0.005169)
111:   3177.57   0.001268    6.41  0.000125  ( 0.007505 -0.005698 -0.005980)
112:   3185.89   0.002596   13.12  0.000254  ( 0.014354 -0.001205  0.006843)
113:   3189.47   0.000821    4.15  0.000080  (-0.002380  0.001487 -0.008512)
114:   3193.03   0.000025    0.13  0.000002  ( 0.000123  0.001346  0.000769)
115:   3193.39   0.000147    0.74  0.000014  ( 0.003076 -0.000600 -0.002121)
116:   3198.67   0.000623    3.15  0.000061  (-0.001353  0.007678  0.000008)
117:   3199.43   0.001050    5.31  0.000102  (-0.007291 -0.002494  0.006563)
118:   3201.28   0.000630    3.18  0.000061  ( 0.006012  0.004245  0.002693)
119:   3211.49   0.000658    3.32  0.000064  (-0.004843 -0.000216 -0.006356)

--------------------------
THERMOCHEMISTRY AT 298.15K
--------------------------

Temperature         ... 298.15 K
Pressure            ... 1.00 atm
Total Mass          ... 230.33 AMU

Throughout the following assumptions are being made:
  (1) The electronic state is orbitally nondegenerate
  (2) There are no thermally accessible electronically excited states
  (3) Hindered rotations indicated by low frequency modes are not
      treated as such but are treated as vibrations and this may
      cause some error
  (4) All equations used are the standard statistical mechanics
      equations for an ideal gas
  (5) All vibrations are strictly harmonic

freq.      20.70  E(vib)   ...       0.56
freq.      28.73  E(vib)   ...       0.55
freq.      34.99  E(vib)   ...       0.54
freq.      44.62  E(vib)   ...       0.53
freq.      49.80  E(vib)   ...       0.52
freq.      69.20  E(vib)   ...       0.50
freq.      84.67  E(vib)   ...       0.48
freq.     102.74  E(vib)   ...       0.46
freq.     119.99  E(vib)   ...       0.44
freq.     127.50  E(vib)   ...       0.43
freq.     182.42  E(vib)   ...       0.37
freq.     183.80  E(vib)   ...       0.37
freq.     217.14  E(vib)   ...       0.34
freq.     239.42  E(vib)   ...       0.31
freq.     247.01  E(vib)   ...       0.31
freq.     260.87  E(vib)   ...       0.30
freq.     308.09  E(vib)   ...       0.26
freq.     319.45  E(vib)   ...       0.25
freq.     327.39  E(vib)   ...       0.24
freq.     368.37  E(vib)   ...       0.21
freq.     374.45  E(vib)   ...       0.21
freq.     383.08  E(vib)   ...       0.20
freq.     403.95  E(vib)   ...       0.19
freq.     429.33  E(vib)   ...       0.18
freq.     460.46  E(vib)   ...       0.16
freq.     467.78  E(vib)   ...       0.16
freq.     478.67  E(vib)   ...       0.15
freq.     491.18  E(vib)   ...       0.14
freq.     546.68  E(vib)   ...       0.12
freq.     578.15  E(vib)   ...       0.11
freq.     597.72  E(vib)   ...       0.10
freq.     609.38  E(vib)   ...       0.10
freq.     655.41  E(vib)   ...       0.08
freq.     767.47  E(vib)   ...       0.06
freq.     776.99  E(vib)   ...       0.05
freq.     803.30  E(vib)   ...       0.05
freq.     834.70  E(vib)   ...       0.04
freq.     926.74  E(vib)   ...       0.03
freq.     956.79  E(vib)   ...       0.03
freq.     966.66  E(vib)   ...       0.03
freq.     976.70  E(vib)   ...       0.03
freq.     992.83  E(vib)   ...       0.02
freq.    1004.23  E(vib)   ...       0.02
freq.    1058.51  E(vib)   ...       0.02
freq.    1065.46  E(vib)   ...       0.02
freq.    1069.53  E(vib)   ...       0.02
freq.    1080.97  E(vib)   ...       0.02
freq.    1098.52  E(vib)   ...       0.02
freq.    1116.82  E(vib)   ...       0.01
freq.    1126.76  E(vib)   ...       0.01
freq.    1158.52  E(vib)   ...       0.01
freq.    1165.88  E(vib)   ...       0.01
freq.    1176.99  E(vib)   ...       0.01
freq.    1178.70  E(vib)   ...       0.01
freq.    1228.33  E(vib)   ...       0.01
freq.    1271.59  E(vib)   ...       0.01
freq.    1274.83  E(vib)   ...       0.01
freq.    1279.85  E(vib)   ...       0.01
freq.    1299.58  E(vib)   ...       0.01
freq.    1311.16  E(vib)   ...       0.01
freq.    1350.37  E(vib)   ...       0.01
freq.    1380.53  E(vib)   ...       0.01
freq.    1388.34  E(vib)   ...       0.00
freq.    1391.08  E(vib)   ...       0.00
freq.    1410.72  E(vib)   ...       0.00
freq.    1441.73  E(vib)   ...       0.00
freq.    1447.42  E(vib)   ...       0.00
freq.    1450.72  E(vib)   ...       0.00
freq.    1467.13  E(vib)   ...       0.00
freq.    1470.90  E(vib)   ...       0.00
freq.    1473.55  E(vib)   ...       0.00
freq.    1478.90  E(vib)   ...       0.00
freq.    1485.90  E(vib)   ...       0.00
freq.    1489.03  E(vib)   ...       0.00
freq.    1494.38  E(vib)   ...       0.00
freq.    1496.67  E(vib)   ...       0.00
freq.    1497.45  E(vib)   ...       0.00
freq.    1499.54  E(vib)   ...       0.00
freq.    1499.66  E(vib)   ...       0.00
freq.    1503.30  E(vib)   ...       0.00
freq.    1505.19  E(vib)   ...       0.00
freq.    1512.58  E(vib)   ...       0.00
freq.    1518.15  E(vib)   ...       0.00
freq.    1526.79  E(vib)   ...       0.00
freq.    1527.30  E(vib)   ...       0.00
freq.    1530.93  E(vib)   ...       0.00
freq.    1537.98  E(vib)   ...       0.00
freq.    1552.04  E(vib)   ...       0.00
freq.    1672.84  E(vib)   ...       0.00
freq.    1684.14  E(vib)   ...       0.00
freq.    3041.00  E(vib)   ...       0.00
freq.    3045.42  E(vib)   ...       0.00
freq.    3060.75  E(vib)   ...       0.00
freq.    3094.29  E(vib)   ...       0.00
freq.    3096.99  E(vib)   ...       0.00
freq.    3099.23  E(vib)   ...       0.00
freq.    3102.45  E(vib)   ...       0.00
freq.    3102.87  E(vib)   ...       0.00
freq.    3108.40  E(vib)   ...       0.00
freq.    3110.40  E(vib)   ...       0.00
freq.    3116.26  E(vib)   ...       0.00
freq.    3123.92  E(vib)   ...       0.00
freq.    3145.52  E(vib)   ...       0.00
freq.    3160.11  E(vib)   ...       0.00
freq.    3166.80  E(vib)   ...       0.00
freq.    3177.57  E(vib)   ...       0.00
freq.    3185.89  E(vib)   ...       0.00
freq.    3189.47  E(vib)   ...       0.00
freq.    3193.03  E(vib)   ...       0.00
freq.    3193.39  E(vib)   ...       0.00
freq.    3198.67  E(vib)   ...       0.00
freq.    3199.43  E(vib)   ...       0.00
freq.    3201.28  E(vib)   ...       0.00
freq.    3211.49  E(vib)   ...       0.00

------------
INNER ENERGY
------------

The inner energy is: U= E(el) + E(ZPE) + E(vib) + E(rot) + E(trans)
    E(el)   - is the total energy from the electronic structure calculation
              = E(kin-el) + E(nuc-el) + E(el-el) + E(nuc-nuc)
    E(ZPE)  - the the zero temperature vibrational energy from the frequency calculation
    E(vib)  - the the finite temperature correction to E(ZPE) due to population
              of excited vibrational states
    E(rot)  - is the rotational thermal energy
    E(trans)- is the translational thermal energy

Summary of contributions to the inner energy U:
Electronic energy                ...   -747.81503116 Eh
Zero point energy                ...      0.36175353 Eh     227.00 kcal/mol
Thermal vibrational correction   ...      0.01680297 Eh      10.54 kcal/mol
Thermal rotational correction    ...      0.00141627 Eh       0.89 kcal/mol
Thermal translational correction ...      0.00141627 Eh       0.89 kcal/mol
-----------------------------------------------------------------------
Total thermal energy                   -747.43364212 Eh

Summary of corrections to the electronic energy:
(perhaps to be used in another calculation)
Total thermal correction                  0.01963551 Eh      12.32 kcal/mol
Non-thermal (ZPE) correction              0.36175353 Eh     227.00 kcal/mol
-----------------------------------------------------------------------
Total correction                          0.38138904 Eh     239.32 kcal/mol

Rotational constants in cm-1:     0.025740     0.008652     0.007437

                             ****ORCA TERMINATED NORMALLY****
TOTAL RUN TIME: 0 days 1 hours 9 minutes 31 seconds 172 msec
