                         Program Version 5.0.4 -  RELEASE  -
|  1> ! OPT FREQ B3LYP 6-31G(d) D4 AUTOAUX CPCM(water)
|  2>
|  3> %PAL NPROCS 4 END
|  4>
|  5> %maxcore 3375
|  6>
|  7> *xyzfile 0 1 /users/fjb15167/WWenergy/structures/NfeCl.xyz
|  8>
|  9>                          ****END OF INPUT****
 Total Charge           Charge          ....    0
 Multiplicity           Mult            ....    1
 Number of Electrons    NEL             ....  150
Dispersion correction           -0.075355436
FINAL SINGLE POINT ENERGY     -1264.625055971227
Dispersion correction            ... Starting D4
Dispersion correction           -0.074504754
FINAL SINGLE POINT ENERGY     -1264.625564578596
Dispersion correction            ... Starting D4
Dispersion correction           -0.074949757
FINAL SINGLE POINT ENERGY     -1264.625785429178
Dispersion correction            ... Starting D4
FINAL SINGLE POINT ENERGY     -1264.625827017711
FINAL SINGLE POINT ENERGY     -1264.625861125110
FINAL SINGLE POINT ENERGY     -1264.625887049875
FINAL SINGLE POINT ENERGY     -1264.625894441568
Dispersion correction           -0.075027046
FINAL SINGLE POINT ENERGY     -1264.625896974670
Dispersion correction            ... Starting D4
Dispersion correction           -0.075021954
FINAL SINGLE POINT ENERGY     -1264.625894988889
Dispersion correction            ... Starting D4
                    ***********************HURRAY********************

CARTESIAN COORDINATES (ANGSTROEM)
---------------------------------
  C      3.087712    3.157271    0.337587
  H      2.386915    2.928859    1.146256
  H      2.543200    3.725771   -0.425345
  H      3.897202    3.775617    0.728817
  C      3.704215    1.904205   -0.257039
  O      4.932778    1.767216   -0.319140
  N      2.848528    0.944756   -0.724769
  C      3.390822   -0.233729   -1.399911
  H      3.059118   -0.239147   -2.442995
  H      4.477997   -0.161400   -1.377249
  C      1.388053    1.050961   -0.674783
  H      1.082993    2.089504   -0.824330
  H      0.998385    0.479687   -1.522457
  C      0.769992    0.504106    0.631568
  H      1.209826   -0.471962    0.854772
  H      1.021477    1.169188    1.464342
  C     -0.727182    0.369561    0.499263
  C     -1.275099   -0.755602   -0.133696
  C     -1.592283    1.371506    0.953543
  C     -2.652623   -0.886105   -0.306033
  H     -0.612865   -1.538594   -0.496026
  C     -2.974693    1.260870    0.791224
  H     -1.184692    2.251005    1.445967
  C     -3.486767    0.128541    0.161875
  H     -3.071233   -1.761621   -0.791647
  H     -3.639907    2.039659    1.149684
  C      2.876585   -1.549087   -0.799965
  N      3.343427   -1.930561    0.417600
  O      2.043166   -2.212452   -1.434073
  C      4.225191   -1.133473    1.263465
  H      3.654559   -0.653326    2.070007
  H      4.973115   -1.793153    1.716729
  H      4.741438   -0.361417    0.695887
  C      2.775233   -3.114533    1.054362
  H      2.060832   -2.826109    1.837689
  H      2.261838   -3.711363    0.302479
  H      3.577682   -3.701724    1.512903
  Cl    -5.233937   -0.027927   -0.044563

 Multiplicity           Mult            ....    1
 Number of Electrons    NEL             ....  150
 Basis Dimension        Dim             ....  308

ORBITAL ENERGIES
----------------

  NO   OCC          E(Eh)            E(eV)
   0   2.0000    -101.529226     -2762.7507
   1   2.0000     -19.110468      -520.0223
   2   2.0000     -19.109795      -520.0040
   3   2.0000     -14.361885      -390.8068
   4   2.0000     -14.361123      -390.7860
   5   2.0000     -10.284533      -279.8564
   6   2.0000     -10.281359      -279.7700
   7   2.0000     -10.243033      -278.7271
   8   2.0000     -10.213910      -277.9346
   9   2.0000     -10.212155      -277.8869
  10   2.0000     -10.199603      -277.5453
  11   2.0000     -10.196509      -277.4611
  12   2.0000     -10.193848      -277.3887
  13   2.0000     -10.192137      -277.3421
  14   2.0000     -10.192122      -277.3417
  15   2.0000     -10.187148      -277.2064
  16   2.0000     -10.186464      -277.1878
  17   2.0000     -10.179415      -276.9960
  18   2.0000     -10.173298      -276.8295
  19   2.0000      -9.461347      -257.4563
  20   2.0000      -7.224276      -196.5825
  21   2.0000      -7.214941      -196.3285
  22   2.0000      -7.214617      -196.3197
  23   2.0000      -1.033627       -28.1264
  24   2.0000      -1.026899       -27.9433
  25   2.0000      -0.935736       -25.4627
  26   2.0000      -0.927812       -25.2471
  27   2.0000      -0.886831       -24.1319
  28   2.0000      -0.839028       -22.8311
  29   2.0000      -0.779266       -21.2049
  30   2.0000      -0.757757       -20.6196
  31   2.0000      -0.751818       -20.4580
  32   2.0000      -0.722957       -19.6727
  33   2.0000      -0.713007       -19.4019
  34   2.0000      -0.704258       -19.1638
  35   2.0000      -0.671452       -18.2711
  36   2.0000      -0.642613       -17.4864
  37   2.0000      -0.615984       -16.7618
  38   2.0000      -0.579383       -15.7658
  39   2.0000      -0.552438       -15.0326
  40   2.0000      -0.538390       -14.6503
  41   2.0000      -0.513562       -13.9747
  42   2.0000      -0.503817       -13.7096
  43   2.0000      -0.487507       -13.2657
  44   2.0000      -0.478971       -13.0335
  45   2.0000      -0.469586       -12.7781
  46   2.0000      -0.465137       -12.6570
  47   2.0000      -0.460595       -12.5334
  48   2.0000      -0.454694       -12.3729
  49   2.0000      -0.446148       -12.1403
  50   2.0000      -0.428382       -11.6569
  51   2.0000      -0.418968       -11.4007
  52   2.0000      -0.417055       -11.3487
  53   2.0000      -0.410597       -11.1729
  54   2.0000      -0.403936       -10.9917
  55   2.0000      -0.397779       -10.8241
  56   2.0000      -0.396138       -10.7795
  57   2.0000      -0.395456       -10.7609
  58   2.0000      -0.392680       -10.6854
  59   2.0000      -0.385333       -10.4854
  60   2.0000      -0.379972       -10.3396
  61   2.0000      -0.374001       -10.1771
  62   2.0000      -0.367365        -9.9965
  63   2.0000      -0.360760        -9.8168
  64   2.0000      -0.349600        -9.5131
  65   2.0000      -0.345310        -9.3964
  66   2.0000      -0.336328        -9.1520
  67   2.0000      -0.325910        -8.8684
  68   2.0000      -0.313458        -8.5296
  69   2.0000      -0.260604        -7.0914
  70   2.0000      -0.257550        -7.0083
  71   2.0000      -0.253416        -6.8958
  72   2.0000      -0.244233        -6.6459
  73   2.0000      -0.238857        -6.4996
  74   2.0000      -0.231567        -6.3013
  75   0.0000      -0.009366        -0.2549
  76   0.0000      -0.007226        -0.1966
  77   0.0000       0.014259         0.3880
  78   0.0000       0.027212         0.7405
  79   0.0000       0.030659         0.8343

MULLIKEN ATOMIC CHARGES
-----------------------
   0 C :   -0.564485
   1 H :    0.195867
   2 H :    0.199133
   3 H :    0.181753
   4 C :    0.530196
   5 O :   -0.536909
   6 N :   -0.368482
   7 C :   -0.249522
   8 H :    0.182755
   9 H :    0.206862
  10 C :   -0.168574
  11 H :    0.185744
  12 H :    0.180323
  13 C :   -0.373271
  14 H :    0.182073
  15 H :    0.173604
  16 C :    0.153539
  17 C :   -0.189292
  18 C :   -0.191346
  19 C :   -0.140149
  20 H :    0.159532
  21 C :   -0.139408
  22 H :    0.162634
  23 C :   -0.080967
  24 H :    0.176042
  25 H :    0.175828
  26 C :    0.517611
  27 N :   -0.357966
  28 O :   -0.542695
  29 C :   -0.345681
  30 H :    0.173500
  31 H :    0.175821
  32 H :    0.194180
  33 C :   -0.331727
  34 H :    0.174025
  35 H :    0.185317
  36 H :    0.174911
  37 Cl:   -0.060777
Sum of atomic charges:    0.0000000

LOEWDIN ATOMIC CHARGES
----------------------
   0 C :   -0.393011
   1 H :    0.154313
   2 H :    0.158661
   3 H :    0.150587
   4 C :    0.115995
   5 O :   -0.338355
   6 N :   -0.069151
   7 C :   -0.178157
   8 H :    0.145965
   9 H :    0.160721
  10 C :   -0.155521
  11 H :    0.144997
  12 H :    0.142562
  13 C :   -0.237688
  14 H :    0.143849
  15 H :    0.138805
  16 C :   -0.019232
  17 C :   -0.128165
  18 C :   -0.128418
  19 C :   -0.139331
  20 H :    0.145492
  21 C :   -0.139657
  22 H :    0.147510
  23 C :   -0.093277
  24 H :    0.154737
  25 H :    0.154766
  26 C :    0.094526
  27 N :   -0.067360
  28 O :   -0.341541
  29 C :   -0.284812
  30 H :    0.133304
  31 H :    0.138527
  32 H :    0.148659
  33 C :   -0.279804
  34 H :    0.133375
  35 H :    0.147270
  36 H :    0.138455
  37 Cl:    0.000402

  Mayer bond orders larger than 0.100000
B(  0-C ,  1-H ) :   0.9177 B(  0-C ,  2-H ) :   0.9199 B(  0-C ,  3-H ) :   0.9384
B(  0-C ,  4-C ) :   0.9952 B(  4-C ,  5-O ) :   1.7467 B(  4-C ,  6-N ) :   1.1639
B(  6-N ,  7-C ) :   0.9523 B(  6-N , 10-C ) :   0.9266 B(  7-C ,  8-H ) :   0.9155
B(  7-C ,  9-H ) :   0.8928 B(  7-C , 26-C ) :   0.9386 B( 10-C , 11-H ) :   0.9204
B( 10-C , 12-H ) :   0.9212 B( 10-C , 13-C ) :   0.9714 B( 13-C , 14-H ) :   0.9165
B( 13-C , 15-H ) :   0.9223 B( 13-C , 16-C ) :   0.9769 B( 16-C , 17-C ) :   1.4214
B( 16-C , 18-C ) :   1.4371 B( 17-C , 19-C ) :   1.4410 B( 17-C , 20-H ) :   0.9085
B( 18-C , 21-C ) :   1.4304 B( 18-C , 22-H ) :   0.9183 B( 19-C , 23-C ) :   1.4132
B( 19-C , 24-H ) :   0.9183 B( 21-C , 23-C ) :   1.4225 B( 21-C , 25-H ) :   0.9181
B( 23-C , 37-Cl) :   0.9813 B( 26-C , 27-N ) :   1.2014 B( 26-C , 28-O ) :   1.7337
B( 27-N , 29-C ) :   0.9491 B( 27-N , 33-C ) :   0.9458 B( 29-C , 30-H ) :   0.9298
B( 29-C , 31-H ) :   0.9340 B( 29-C , 32-H ) :   0.9042 B( 33-C , 34-H ) :   0.9331
B( 33-C , 35-H ) :   0.9265 B( 33-C , 36-H ) :   0.9367

Dispersion correction           -0.075021521
FINAL SINGLE POINT ENERGY     -1264.625898041890

DIPOLE MOMENT
-------------
                                X             Y             Z
Electronic contribution:    -28.74694      -0.27396      -5.26688
Nuclear contribution   :     29.14242       0.94029       6.72095
                        -----------------------------------------
Total Dipole Moment    :      0.39548       0.66633       1.45406
                        -----------------------------------------
Magnitude (a.u.)       :      1.64763
Magnitude (Debye)      :      4.18795

Dispersion correction in the Hessian             ... Starting D4

VIBRATIONAL FREQUENCIES
-----------------------

Scaling factor for frequencies =  1.000000000  (already applied!)

   0:         0.00 cm**-1
   1:         0.00 cm**-1
   2:         0.00 cm**-1
   3:         0.00 cm**-1
   4:         0.00 cm**-1
   5:         0.00 cm**-1
   6:        22.94 cm**-1
   7:        34.30 cm**-1
   8:        39.45 cm**-1
   9:        55.42 cm**-1
  10:        67.57 cm**-1
  11:        79.17 cm**-1
  12:        82.72 cm**-1
  13:       104.85 cm**-1
  14:       113.20 cm**-1
  15:       126.15 cm**-1
  16:       149.68 cm**-1
  17:       161.36 cm**-1
  18:       167.21 cm**-1
  19:       219.93 cm**-1
  20:       249.97 cm**-1
  21:       260.46 cm**-1
  22:       275.68 cm**-1
  23:       320.54 cm**-1
  24:       342.84 cm**-1
  25:       368.49 cm**-1
  26:       380.29 cm**-1
  27:       392.37 cm**-1
  28:       421.06 cm**-1
  29:       425.74 cm**-1
  30:       436.02 cm**-1
  31:       463.14 cm**-1
  32:       495.82 cm**-1
  33:       524.69 cm**-1
  34:       579.91 cm**-1
  35:       598.90 cm**-1
  36:       620.32 cm**-1
  37:       645.62 cm**-1
  38:       667.13 cm**-1
  39:       700.67 cm**-1
  40:       728.62 cm**-1
  41:       764.57 cm**-1
  42:       784.55 cm**-1
  43:       816.94 cm**-1
  44:       830.53 cm**-1
  45:       847.07 cm**-1
  46:       870.28 cm**-1
  47:       960.55 cm**-1
  48:       967.53 cm**-1
  49:       982.14 cm**-1
  50:      1002.43 cm**-1
  51:      1010.36 cm**-1
  52:      1026.96 cm**-1
  53:      1031.55 cm**-1
  54:      1032.76 cm**-1
  55:      1061.45 cm**-1
  56:      1088.52 cm**-1
  57:      1096.09 cm**-1
  58:      1102.22 cm**-1
  59:      1134.72 cm**-1
  60:      1139.43 cm**-1
  61:      1171.02 cm**-1
  62:      1184.37 cm**-1
  63:      1207.20 cm**-1
  64:      1218.43 cm**-1
  65:      1236.30 cm**-1
  66:      1250.94 cm**-1
  67:      1285.54 cm**-1
  68:      1289.73 cm**-1
  69:      1333.52 cm**-1
  70:      1335.12 cm**-1
  71:      1336.61 cm**-1
  72:      1362.52 cm**-1
  73:      1372.44 cm**-1
  74:      1406.25 cm**-1
  75:      1414.66 cm**-1
  76:      1442.03 cm**-1
  77:      1451.17 cm**-1
  78:      1457.49 cm**-1
  79:      1475.17 cm**-1
  80:      1482.19 cm**-1
  81:      1489.53 cm**-1
  82:      1499.44 cm**-1
  83:      1504.12 cm**-1
  84:      1510.05 cm**-1
  85:      1512.86 cm**-1
  86:      1517.67 cm**-1
  87:      1530.67 cm**-1
  88:      1533.55 cm**-1
  89:      1535.57 cm**-1
  90:      1554.72 cm**-1
  91:      1630.79 cm**-1
  92:      1650.35 cm**-1
  93:      1701.54 cm**-1
  94:      1707.75 cm**-1
  95:      3036.11 cm**-1
  96:      3040.69 cm**-1
  97:      3066.45 cm**-1
  98:      3077.49 cm**-1
  99:      3084.77 cm**-1
 100:      3090.07 cm**-1
 101:      3099.35 cm**-1
 102:      3105.74 cm**-1
 103:      3122.76 cm**-1
 104:      3133.75 cm**-1
 105:      3143.06 cm**-1
 106:      3166.86 cm**-1
 107:      3171.02 cm**-1
 108:      3193.00 cm**-1
 109:      3194.34 cm**-1
 110:      3194.85 cm**-1
 111:      3195.50 cm**-1
 112:      3224.03 cm**-1
 113:      3224.96 cm**-1

IR SPECTRUM
-----------

 Mode   freq       eps      Int      T**2         TX        TY        TZ
       cm**-1   L/(mol*cm) km/mol    a.u.
----------------------------------------------------------------------------
  6:     22.94   0.000099    0.50  0.001347  ( 0.020384  0.029922  0.006003)
  7:     34.30   0.000053    0.27  0.000478  ( 0.008998 -0.019532 -0.003992)
  8:     39.45   0.000466    2.35  0.003684  (-0.057288 -0.005441 -0.019308)
  9:     55.42   0.001082    5.47  0.006090  ( 0.043808 -0.002010 -0.064554)
 10:     67.57   0.001094    5.53  0.005052  ( 0.029746 -0.053059 -0.036775)
 11:     79.17   0.000574    2.90  0.002263  (-0.032691  0.031398  0.014437)
 12:     82.72   0.000464    2.34  0.001750  (-0.010945  0.038918  0.010738)
 13:    104.85   0.001445    7.30  0.004302  (-0.007250  0.042131 -0.049741)
 14:    113.20   0.001488    7.52  0.004102  ( 0.008326  0.046985 -0.042725)
 15:    126.15   0.000952    4.81  0.002355  (-0.018769  0.044266 -0.006583)
 16:    149.68   0.000184    0.93  0.000383  ( 0.001499 -0.016667 -0.010129)
 17:    161.36   0.000406    2.05  0.000786  (-0.002944  0.027616 -0.003840)
 18:    167.21   0.000097    0.49  0.000180  ( 0.000941  0.005711  0.012114)
 19:    219.93   0.000181    0.91  0.000256  (-0.012428  0.004390  0.009092)
 20:    249.97   0.001460    7.38  0.001823  (-0.022913  0.032717  0.015084)
 21:    260.46   0.000445    2.25  0.000533  (-0.014067  0.017503  0.005361)
 22:    275.68   0.001898    9.59  0.002149  ( 0.036204 -0.028301  0.006091)
 23:    320.54   0.000714    3.61  0.000695  ( 0.005488 -0.025723  0.001709)
 24:    342.84   0.000898    4.54  0.000818  ( 0.009884  0.001431  0.026795)
 25:    368.49   0.002092   10.57  0.001772  (-0.012561  0.025253 -0.031249)
 26:    380.29   0.000753    3.80  0.000618  ( 0.005409 -0.014345  0.019559)
 27:    392.37   0.001733    8.76  0.001378  (-0.006015 -0.009723  0.035318)
 28:    421.06   0.000007    0.03  0.000005  ( 0.000834 -0.001848 -0.000983)
 29:    425.74   0.005754   29.08  0.004218  (-0.057282 -0.029293  0.008853)
 30:    436.02   0.000471    2.38  0.000337  (-0.017468  0.005504 -0.001355)
 31:    463.14   0.002723   13.76  0.001835  ( 0.040567  0.012807 -0.005010)
 32:    495.82   0.004494   22.71  0.002829  ( 0.026719 -0.041063 -0.020704)
 33:    524.69   0.005332   26.95  0.003171  ( 0.004180 -0.012630  0.054720)
 34:    579.91   0.004087   20.66  0.002200  (-0.009898 -0.038923  0.024219)
 35:    598.90   0.002363   11.94  0.001231  ( 0.015060  0.025374 -0.018988)
 36:    620.32   0.002759   13.94  0.001388  (-0.010703 -0.002303  0.035607)
 37:    645.62   0.000038    0.19  0.000018  ( 0.003734  0.001120  0.001746)
 38:    667.13   0.007367   37.23  0.003446  (-0.052918 -0.010125 -0.023303)
 39:    700.67   0.000349    1.76  0.000156  (-0.007980  0.005349 -0.007951)
 40:    728.62   0.001030    5.20  0.000441  ( 0.011645  0.012987 -0.011692)
 41:    764.57   0.003689   18.64  0.001506  ( 0.001607 -0.031574  0.022496)
 42:    784.55   0.002140   10.82  0.000851  (-0.019236  0.017902  0.012679)
 43:    816.94   0.007635   38.59  0.002917  ( 0.047393 -0.004689  0.025465)
 44:    830.53   0.005286   26.72  0.001986  ( 0.003586 -0.020028  0.039653)
 45:    847.07   0.000222    1.12  0.000082  (-0.001000 -0.001183  0.008918)
 46:    870.28   0.005144   26.00  0.001845  ( 0.004852  0.021661 -0.036766)
 47:    960.55   0.000550    2.78  0.000179  (-0.008300  0.004366 -0.009518)
 48:    967.53   0.000180    0.91  0.000058  ( 0.006518 -0.002184  0.003299)
 49:    982.14   0.000001    0.00  0.000000  ( 0.000407 -0.000187  0.000251)
 50:   1002.43   0.004926   24.89  0.001533  (-0.022523  0.009205 -0.030681)
 51:   1010.36   0.006705   33.88  0.002071  ( 0.030740  0.024062 -0.023385)
 52:   1026.96   0.010905   55.11  0.003314  (-0.057458 -0.003478 -0.000334)
 53:   1031.55   0.009996   50.51  0.003024  ( 0.036398  0.041107 -0.003038)
 54:   1032.76   0.005231   26.44  0.001581  ( 0.005949  0.011392  0.037625)
 55:   1061.45   0.002222   11.23  0.000653  (-0.001871  0.010447 -0.023255)
 56:   1088.52   0.003361   16.99  0.000964  (-0.023069 -0.019063 -0.008246)
 57:   1096.09   0.002599   13.13  0.000740  (-0.010411  0.006385 -0.024303)
 58:   1102.22   0.011933   60.31  0.003379  ( 0.057368  0.006709  0.006513)
 59:   1134.72   0.000617    3.12  0.000170  ( 0.001930  0.012867  0.000530)
 60:   1139.43   0.002608   13.18  0.000714  (-0.010758 -0.008502 -0.022937)
 61:   1171.02   0.014456   73.05  0.003852  (-0.041467  0.023876 -0.039532)
 62:   1184.37   0.000910    4.60  0.000240  ( 0.008384 -0.003442  0.012561)
 63:   1207.20   0.000047    0.24  0.000012  ( 0.002912 -0.000136  0.001901)
 64:   1218.43   0.010452   52.82  0.002677  (-0.003978 -0.019997 -0.047552)
 65:   1236.30   0.004022   20.33  0.001015  ( 0.025782  0.018357  0.003684)
 66:   1250.94   0.013779   69.63  0.003437  ( 0.036995  0.044636  0.008736)
 67:   1285.54   0.007948   40.17  0.001929  ( 0.008508  0.002051 -0.043045)
 68:   1289.73   0.033140  167.48  0.008019  (-0.020645 -0.085923 -0.014476)
 69:   1333.52   0.000276    1.40  0.000065  ( 0.003044  0.006768  0.003097)
 70:   1335.12   0.001140    5.76  0.000266  ( 0.010634  0.012377  0.000382)
 71:   1336.61   0.002467   12.47  0.000576  ( 0.017030  0.016680  0.002792)
 72:   1362.52   0.000521    2.64  0.000119  (-0.006995 -0.007297 -0.004153)
 73:   1372.44   0.000453    2.29  0.000103  (-0.006683  0.004068 -0.006473)
 74:   1406.25   0.013420   67.82  0.002978  (-0.052647 -0.005817  0.013129)
 75:   1414.66   0.007360   37.19  0.001624  (-0.026357 -0.028750 -0.010116)
 76:   1442.03   0.016022   80.97  0.003467  (-0.017719  0.023142 -0.051164)
 77:   1451.17   0.001574    7.96  0.000339  (-0.004433 -0.015100 -0.009532)
 78:   1457.49   0.016613   83.96  0.003557  (-0.003922  0.047705 -0.035579)
 79:   1475.17   0.050212  253.75  0.010622  (-0.069232 -0.072078 -0.025173)
 80:   1482.19   0.003449   17.43  0.000726  ( 0.021727 -0.015423 -0.004030)
 81:   1489.53   0.000651    3.29  0.000136  (-0.006231 -0.000385  0.009873)
 82:   1499.44   0.001685    8.52  0.000351  ( 0.005052  0.000136  0.018032)
 83:   1504.12   0.003410   17.23  0.000707  (-0.005360  0.020678  0.015848)
 84:   1510.05   0.002605   13.16  0.000538  ( 0.008345  0.021529  0.002287)
 85:   1512.86   0.003036   15.34  0.000626  (-0.005848 -0.024258  0.001877)
 86:   1517.67   0.003897   19.70  0.000801  ( 0.026267 -0.010443 -0.001544)
 87:   1530.67   0.005364   27.11  0.001094  (-0.029771 -0.002538 -0.014174)
 88:   1533.55   0.007562   38.22  0.001539  (-0.010635  0.019522  0.032321)
 89:   1535.57   0.022966  116.06  0.004667  ( 0.067517  0.005026  0.009130)
 90:   1554.72   0.017525   88.56  0.003518  (-0.004509 -0.036175  0.046782)
 91:   1630.79   0.000397    2.01  0.000076  ( 0.000162  0.008029  0.003394)
 92:   1650.35   0.000344    1.74  0.000065  ( 0.007986  0.000172  0.001075)
 93:   1701.54   0.202320  1022.44  0.037106  ( 0.155479  0.043829  0.104933)
 94:   1707.75   0.048665  245.93  0.008893  (-0.081308  0.002109  0.047721)
 95:   3036.11   0.005096   25.75  0.000524  (-0.015633 -0.016428 -0.003078)
 96:   3040.69   0.018339   92.68  0.001882  (-0.001823 -0.003983  0.043162)
 97:   3066.45   0.000597    3.02  0.000061  (-0.005780  0.005217  0.000341)
 98:   3077.49   0.003101   15.67  0.000314  (-0.009259 -0.007919 -0.012883)
 99:   3084.77   0.004519   22.84  0.000457  (-0.003393  0.009566  0.018817)
100:   3090.07   0.012601   63.68  0.001273  ( 0.020841 -0.002101  0.028875)
101:   3099.35   0.010681   53.98  0.001075  ( 0.025981 -0.019937  0.001707)
102:   3105.74   0.006424   32.47  0.000645  ( 0.019390 -0.016307  0.001900)
103:   3122.76   0.000714    3.61  0.000071  ( 0.004235 -0.007298  0.000427)
104:   3133.75   0.001853    9.36  0.000185  ( 0.000694  0.002717 -0.013291)
105:   3143.06   0.007969   40.27  0.000791  (-0.000541  0.027495  0.005912)
106:   3166.86   0.001659    8.38  0.000163  (-0.000496  0.011737 -0.005050)
107:   3171.02   0.002885   14.58  0.000284  (-0.014649 -0.007759 -0.003018)
108:   3193.00   0.000892    4.51  0.000087  (-0.005707  0.006973  0.002454)
109:   3194.34   0.001195    6.04  0.000117  ( 0.000548  0.009966  0.004135)
110:   3194.85   0.002587   13.07  0.000253  (-0.009316 -0.010868 -0.006915)
111:   3195.50   0.000484    2.45  0.000047  (-0.006731 -0.000604 -0.001274)
112:   3224.03   0.001352    6.83  0.000131  (-0.001479  0.010029  0.005302)
113:   3224.96   0.000283    1.43  0.000027  ( 0.005032  0.001357  0.000431)

--------------------------
THERMOCHEMISTRY AT 298.15K
--------------------------

Temperature         ... 298.15 K
Pressure            ... 1.00 atm
Total Mass          ... 282.77 AMU

Throughout the following assumptions are being made:
  (1) The electronic state is orbitally nondegenerate
  (2) There are no thermally accessible electronically excited states
  (3) Hindered rotations indicated by low frequency modes are not
      treated as such but are treated as vibrations and this may
      cause some error
  (4) All equations used are the standard statistical mechanics
      equations for an ideal gas
  (5) All vibrations are strictly harmonic

freq.      22.94  E(vib)   ...       0.56
freq.      34.30  E(vib)   ...       0.54
freq.      39.45  E(vib)   ...       0.54
freq.      55.42  E(vib)   ...       0.52
freq.      67.57  E(vib)   ...       0.50
freq.      79.17  E(vib)   ...       0.49
freq.      82.72  E(vib)   ...       0.48
freq.     104.85  E(vib)   ...       0.46
freq.     113.20  E(vib)   ...       0.45
freq.     126.15  E(vib)   ...       0.43
freq.     149.68  E(vib)   ...       0.40
freq.     161.36  E(vib)   ...       0.39
freq.     167.21  E(vib)   ...       0.39
freq.     219.93  E(vib)   ...       0.33
freq.     249.97  E(vib)   ...       0.31
freq.     260.46  E(vib)   ...       0.30
freq.     275.68  E(vib)   ...       0.28
freq.     320.54  E(vib)   ...       0.25
freq.     342.84  E(vib)   ...       0.23
freq.     368.49  E(vib)   ...       0.21
freq.     380.29  E(vib)   ...       0.21
freq.     392.37  E(vib)   ...       0.20
freq.     421.06  E(vib)   ...       0.18
freq.     425.74  E(vib)   ...       0.18
freq.     436.02  E(vib)   ...       0.17
freq.     463.14  E(vib)   ...       0.16
freq.     495.82  E(vib)   ...       0.14
freq.     524.69  E(vib)   ...       0.13
freq.     579.91  E(vib)   ...       0.11
freq.     598.90  E(vib)   ...       0.10
freq.     620.32  E(vib)   ...       0.09
freq.     645.62  E(vib)   ...       0.09
freq.     667.13  E(vib)   ...       0.08
freq.     700.67  E(vib)   ...       0.07
freq.     728.62  E(vib)   ...       0.06
freq.     764.57  E(vib)   ...       0.06
freq.     784.55  E(vib)   ...       0.05
freq.     816.94  E(vib)   ...       0.05
freq.     830.53  E(vib)   ...       0.04
freq.     847.07  E(vib)   ...       0.04
freq.     870.28  E(vib)   ...       0.04
freq.     960.55  E(vib)   ...       0.03
freq.     967.53  E(vib)   ...       0.03
freq.     982.14  E(vib)   ...       0.02
freq.    1002.43  E(vib)   ...       0.02
freq.    1010.36  E(vib)   ...       0.02
freq.    1026.96  E(vib)   ...       0.02
freq.    1031.55  E(vib)   ...       0.02
freq.    1032.76  E(vib)   ...       0.02
freq.    1061.45  E(vib)   ...       0.02
freq.    1088.52  E(vib)   ...       0.02
freq.    1096.09  E(vib)   ...       0.02
freq.    1102.22  E(vib)   ...       0.02
freq.    1134.72  E(vib)   ...       0.01
freq.    1139.43  E(vib)   ...       0.01
freq.    1171.02  E(vib)   ...       0.01
freq.    1184.37  E(vib)   ...       0.01
freq.    1207.20  E(vib)   ...       0.01
freq.    1218.43  E(vib)   ...       0.01
freq.    1236.30  E(vib)   ...       0.01
freq.    1250.94  E(vib)   ...       0.01
freq.    1285.54  E(vib)   ...       0.01
freq.    1289.73  E(vib)   ...       0.01
freq.    1333.52  E(vib)   ...       0.01
freq.    1335.12  E(vib)   ...       0.01
freq.    1336.61  E(vib)   ...       0.01
freq.    1362.52  E(vib)   ...       0.01
freq.    1372.44  E(vib)   ...       0.01
freq.    1406.25  E(vib)   ...       0.00
freq.    1414.66  E(vib)   ...       0.00
freq.    1442.03  E(vib)   ...       0.00
freq.    1451.17  E(vib)   ...       0.00
freq.    1457.49  E(vib)   ...       0.00
freq.    1475.17  E(vib)   ...       0.00
freq.    1482.19  E(vib)   ...       0.00
freq.    1489.53  E(vib)   ...       0.00
freq.    1499.44  E(vib)   ...       0.00
freq.    1504.12  E(vib)   ...       0.00
freq.    1510.05  E(vib)   ...       0.00
freq.    1512.86  E(vib)   ...       0.00
freq.    1517.67  E(vib)   ...       0.00
freq.    1530.67  E(vib)   ...       0.00
freq.    1533.55  E(vib)   ...       0.00
freq.    1535.57  E(vib)   ...       0.00
freq.    1554.72  E(vib)   ...       0.00
freq.    1630.79  E(vib)   ...       0.00
freq.    1650.35  E(vib)   ...       0.00
freq.    1701.54  E(vib)   ...       0.00
freq.    1707.75  E(vib)   ...       0.00
freq.    3036.11  E(vib)   ...       0.00
freq.    3040.69  E(vib)   ...       0.00
freq.    3066.45  E(vib)   ...       0.00
freq.    3077.49  E(vib)   ...       0.00
freq.    3084.77  E(vib)   ...       0.00
freq.    3090.07  E(vib)   ...       0.00
freq.    3099.35  E(vib)   ...       0.00
freq.    3105.74  E(vib)   ...       0.00
freq.    3122.76  E(vib)   ...       0.00
freq.    3133.75  E(vib)   ...       0.00
freq.    3143.06  E(vib)   ...       0.00
freq.    3166.86  E(vib)   ...       0.00
freq.    3171.02  E(vib)   ...       0.00
freq.    3193.00  E(vib)   ...       0.00
freq.    3194.34  E(vib)   ...       0.00
freq.    3194.85  E(vib)   ...       0.00
freq.    3195.50  E(vib)   ...       0.00
freq.    3224.03  E(vib)   ...       0.00
freq.    3224.96  E(vib)   ...       0.00

------------
INNER ENERGY
------------

The inner energy is: U= E(el) + E(ZPE) + E(vib) + E(rot) + E(trans)
    E(el)   - is the total energy from the electronic structure calculation
              = E(kin-el) + E(nuc-el) + E(el-el) + E(nuc-nuc)
    E(ZPE)  - the the zero temperature vibrational energy from the frequency calculation
    E(vib)  - the the finite temperature correction to E(ZPE) due to population
              of excited vibrational states
    E(rot)  - is the rotational thermal energy
    E(trans)- is the translational thermal energy

Summary of contributions to the inner energy U:
Electronic energy                ...  -1264.62589804 Eh
Zero point energy                ...      0.31673136 Eh     198.75 kcal/mol
Thermal vibrational correction   ...      0.01712335 Eh      10.75 kcal/mol
Thermal rotational correction    ...      0.00141627 Eh       0.89 kcal/mol
Thermal translational correction ...      0.00141627 Eh       0.89 kcal/mol
-----------------------------------------------------------------------
Total thermal energy                  -1264.28921078 Eh

Summary of corrections to the electronic energy:
(perhaps to be used in another calculation)
Total thermal correction                  0.01995589 Eh      12.52 kcal/mol
Non-thermal (ZPE) correction              0.31673136 Eh     198.75 kcal/mol
-----------------------------------------------------------------------
Total correction                          0.33668726 Eh     211.27 kcal/mol

--------
ENTHALPY
--------

Rotational constants in cm-1:     0.019477     0.005267     0.004534

                             ****ORCA TERMINATED NORMALLY****
TOTAL RUN TIME: 0 days 0 hours 40 minutes 40 seconds 103 msec
