                         Program Version 5.0.4 -  RELEASE  -
|  1> ! OPT FREQ B3LYP 6-31G(d) D4 AUTOAUX
|  2>
|  3> %PAL NPROCS 4 END
|  4>
|  5> %maxcore 3375
|  6>
|  7> *xyzfile 0 1 /users/fjb15167/WWenergy/structures/Nfp.xyz
|  8>
|  9>                          ****END OF INPUT****
 Total Charge           Charge          ....    0
 Multiplicity           Mult            ....    1
 Number of Electrons    NEL             ....  142
Dispersion correction           -0.077307205
FINAL SINGLE POINT ENERGY      -844.359953205784
Dispersion correction            ... Starting D4
Dispersion correction           -0.076430445
FINAL SINGLE POINT ENERGY      -844.360342024354
Dispersion correction            ... Starting D4
Dispersion correction           -0.076995401
FINAL SINGLE POINT ENERGY      -844.360521342433
Dispersion correction            ... Starting D4
FINAL SINGLE POINT ENERGY      -844.360563958444
FINAL SINGLE POINT ENERGY      -844.360582571874
FINAL SINGLE POINT ENERGY      -844.360611394684
FINAL SINGLE POINT ENERGY      -844.360647196299
FINAL SINGLE POINT ENERGY      -844.360662079269
FINAL SINGLE POINT ENERGY      -844.360675627790
FINAL SINGLE POINT ENERGY      -844.360684042197
Dispersion correction           -0.077102595
FINAL SINGLE POINT ENERGY      -844.360685886123
Dispersion correction            ... Starting D4
Dispersion correction           -0.077083713
FINAL SINGLE POINT ENERGY      -844.360687980493
Dispersion correction            ... Starting D4
                    ***********************HURRAY********************

CARTESIAN COORDINATES (ANGSTROEM)
---------------------------------
  C      2.896416   -2.693698   -0.912277
  H      1.864393   -2.846268   -1.244584
  H      3.086167   -3.386980   -0.084239
  H      3.576670   -2.928675   -1.731689
  C      3.160012   -1.254058   -0.496798
  O      4.065269   -0.601990   -1.017422
  N      2.354946   -0.730547    0.483586
  C      2.614571    0.623562    0.972883
  H      2.798608    0.587695    2.051583
  H      3.510337    0.986069    0.469941
  C      1.205357   -1.422080    1.073145
  H      1.429780   -2.487325    1.183066
  H      1.082329   -1.015788    2.082503
  C     -0.098773   -1.206785    0.289049
  H     -0.124683   -0.175141   -0.068309
  H     -0.122236   -1.839922   -0.607589
  C      1.397439    1.546914    0.807013
  N      1.176123    2.121419   -0.412307
  O      0.645293    1.723547    1.768021
  C      1.893130    1.804666   -1.639815
  H      1.241585    1.246112   -2.327522
  H      2.192905    2.734025   -2.140162
  H      2.783520    1.204907   -1.455652
  C     -0.016722    2.941912   -0.579921
  H     -0.831386    2.367572   -1.043505
  H     -0.345031    3.291130    0.398359
  H      0.219238    3.797191   -1.222976
  C     -1.358088   -1.450874    1.140687
  H     -1.494635   -2.524196    1.325263
  H     -1.211433   -0.972537    2.117953
  C     -2.583475   -0.864111    0.480043
  C     -2.795636    0.521755    0.535131
  C     -3.486934   -1.655747   -0.235170
  C     -3.885845    1.099563   -0.113842
  H     -2.094129    1.141279    1.090524
  C     -4.581185   -1.079775   -0.885062
  H     -3.333939   -2.732118   -0.282338
  C     -4.782755    0.299460   -0.827565
  H     -4.041343    2.174188   -0.057328
  H     -5.276703   -1.709796   -1.433967
  H     -5.635157    0.748443   -1.330711

 Multiplicity           Mult            ....    1
 Number of Electrons    NEL             ....  142
 Basis Dimension        Dim             ....  310

ORBITAL ENERGIES
----------------

  NO   OCC          E(Eh)            E(eV)
   0   2.0000     -19.106540      -519.9154
   1   2.0000     -19.105325      -519.8823
   2   2.0000     -14.361738      -390.8027
   3   2.0000     -14.360433      -390.7672
   4   2.0000     -10.282925      -279.8126
   5   2.0000     -10.278050      -279.6800
   6   2.0000     -10.217991      -278.0457
   7   2.0000     -10.213657      -277.9277
   8   2.0000     -10.205353      -277.7018
   9   2.0000     -10.201663      -277.6014
  10   2.0000     -10.183692      -277.1123
  11   2.0000     -10.182851      -277.0895
  12   2.0000     -10.179966      -277.0110
  13   2.0000     -10.179146      -276.9887
  14   2.0000     -10.177493      -276.9437
  15   2.0000     -10.177042      -276.9314
  16   2.0000     -10.175871      -276.8995
  17   2.0000     -10.175637      -276.8932
  18   2.0000     -10.172043      -276.7953
  19   2.0000      -1.032702       -28.1013
  20   2.0000      -1.025494       -27.9051
  21   2.0000      -0.934999       -25.4426
  22   2.0000      -0.928899       -25.2766
  23   2.0000      -0.848817       -23.0975
  24   2.0000      -0.795425       -21.6446
  25   2.0000      -0.762208       -20.7407
  26   2.0000      -0.743811       -20.2401
  27   2.0000      -0.735706       -20.0196
  28   2.0000      -0.722805       -19.6685
  29   2.0000      -0.710225       -19.3262
  30   2.0000      -0.682895       -18.5825
  31   2.0000      -0.671389       -18.2694
  32   2.0000      -0.616501       -16.7758
  33   2.0000      -0.597519       -16.2593
  34   2.0000      -0.571673       -15.5560
  35   2.0000      -0.555127       -15.1058
  36   2.0000      -0.539805       -14.6888
  37   2.0000      -0.515121       -14.0172
  38   2.0000      -0.503187       -13.6924
  39   2.0000      -0.487811       -13.2740
  40   2.0000      -0.482922       -13.1410
  41   2.0000      -0.468874       -12.7587
  42   2.0000      -0.461000       -12.5445
  43   2.0000      -0.458036       -12.4638
  44   2.0000      -0.452705       -12.3187
  45   2.0000      -0.447081       -12.1657
  46   2.0000      -0.431816       -11.7503
  47   2.0000      -0.422489       -11.4965
  48   2.0000      -0.412109       -11.2141
  49   2.0000      -0.409875       -11.1533
  50   2.0000      -0.405412       -11.0318
  51   2.0000      -0.401405       -10.9228
  52   2.0000      -0.400501       -10.8982
  53   2.0000      -0.399246       -10.8640
  54   2.0000      -0.392885       -10.6910
  55   2.0000      -0.382518       -10.4088
  56   2.0000      -0.376858       -10.2548
  57   2.0000      -0.374908       -10.2018
  58   2.0000      -0.368769       -10.0347
  59   2.0000      -0.362022        -9.8511
  60   2.0000      -0.349655        -9.5146
  61   2.0000      -0.342766        -9.3271
  62   2.0000      -0.338343        -9.2068
  63   2.0000      -0.328677        -8.9438
  64   2.0000      -0.327251        -8.9050
  65   2.0000      -0.257709        -7.0126
  66   2.0000      -0.248698        -6.7674
  67   2.0000      -0.243483        -6.6255
  68   2.0000      -0.239804        -6.5254
  69   2.0000      -0.236194        -6.4272
  70   2.0000      -0.228817        -6.2264
  71   0.0000       0.003908         0.1063
  72   0.0000       0.007134         0.1941
  73   0.0000       0.015496         0.4217
  74   0.0000       0.029613         0.8058
  75   0.0000       0.078013         2.1228

MULLIKEN ATOMIC CHARGES
-----------------------
   0 C :   -0.551487
   1 H :    0.170407
   2 H :    0.173487
   3 H :    0.187943
   4 C :    0.524912
   5 O :   -0.478741
   6 N :   -0.377194
   7 C :   -0.242270
   8 H :    0.173301
   9 H :    0.200714
  10 C :   -0.159376
  11 H :    0.152265
  12 H :    0.172390
  13 C :   -0.271799
  14 H :    0.171797
  15 H :    0.137603
  16 C :    0.514612
  17 N :   -0.363655
  18 O :   -0.489625
  19 C :   -0.350803
  20 H :    0.153830
  21 H :    0.155538
  22 H :    0.216492
  23 C :   -0.324600
  24 H :    0.162759
  25 H :    0.196157
  26 H :    0.150098
  27 C :   -0.349881
  28 H :    0.137002
  29 H :    0.160819
  30 C :    0.158646
  31 C :   -0.190933
  32 C :   -0.180099
  33 C :   -0.134544
  34 H :    0.156974
  35 C :   -0.127545
  36 H :    0.117257
  37 C :   -0.128561
  38 H :    0.126208
  39 H :    0.125140
  40 H :    0.124762
Sum of atomic charges:   -0.0000000

LOEWDIN ATOMIC CHARGES
----------------------
   0 C :   -0.389692
   1 H :    0.141462
   2 H :    0.144833
   3 H :    0.152965
   4 C :    0.108594
   5 O :   -0.289987
   6 N :   -0.076215
   7 C :   -0.178007
   8 H :    0.141256
   9 H :    0.157266
  10 C :   -0.159714
  11 H :    0.128675
  12 H :    0.138909
  13 C :   -0.239476
  14 H :    0.136299
  15 H :    0.119501
  16 C :    0.092460
  17 N :   -0.079058
  18 O :   -0.295412
  19 C :   -0.287589
  20 H :    0.123522
  21 H :    0.126587
  22 H :    0.157273
  23 C :   -0.279363
  24 H :    0.127134
  25 H :    0.151815
  26 H :    0.126132
  27 C :   -0.224368
  28 H :    0.122796
  29 H :    0.135202
  30 C :   -0.016652
  31 C :   -0.138197
  32 C :   -0.138504
  33 C :   -0.130650
  34 H :    0.140919
  35 C :   -0.129286
  36 H :    0.126043
  37 C :   -0.135911
  38 H :    0.129612
  39 H :    0.129467
  40 H :    0.129359

  Mayer bond orders larger than 0.100000
B(  0-C ,  1-H ) :   0.9264 B(  0-C ,  2-H ) :   0.9297 B(  0-C ,  3-H ) :   0.9404
B(  0-C ,  4-C ) :   0.9796 B(  4-C ,  5-O ) :   1.7887 B(  4-C ,  6-N ) :   1.1366
B(  6-N ,  7-C ) :   0.9578 B(  6-N , 10-C ) :   0.9389 B(  7-C ,  8-H ) :   0.9192
B(  7-C ,  9-H ) :   0.8954 B(  7-C , 16-C ) :   0.9298 B( 10-C , 11-H ) :   0.9282
B( 10-C , 12-H ) :   0.9224 B( 10-C , 13-C ) :   0.9765 B( 13-C , 14-H ) :   0.9231
B( 13-C , 15-H ) :   0.9342 B( 13-C , 27-C ) :   0.9832 B( 16-C , 17-N ) :   1.1636
B( 16-C , 18-O ) :   1.7703 B( 17-N , 19-C ) :   0.9541 B( 17-N , 23-C ) :   0.9539
B( 19-C , 20-H ) :   0.9354 B( 19-C , 21-H ) :   0.9378 B( 19-C , 22-H ) :   0.8903
B( 23-C , 24-H ) :   0.9305 B( 23-C , 25-H ) :   0.9247 B( 23-C , 26-H ) :   0.9406
B( 27-C , 28-H ) :   0.9361 B( 27-C , 29-H ) :   0.9272 B( 27-C , 30-C ) :   0.9889
B( 30-C , 31-C ) :   1.4263 B( 30-C , 32-C ) :   1.4508 B( 31-C , 33-C ) :   1.4434
B( 31-C , 34-H ) :   0.9069 B( 32-C , 35-C ) :   1.4313 B( 32-C , 36-H ) :   0.9259
B( 33-C , 37-C ) :   1.4432 B( 33-C , 38-H ) :   0.9304 B( 35-C , 37-C ) :   1.4621
B( 35-C , 39-H ) :   0.9301 B( 37-C , 40-H ) :   0.9310

Dispersion correction           -0.077092423
FINAL SINGLE POINT ENERGY      -844.360688278696

DIPOLE MOMENT
-------------
                                X             Y             Z
Electronic contribution:      0.02452       1.77640       3.84705
Nuclear contribution   :     -0.50517      -2.29455      -4.34448
                        -----------------------------------------
Total Dipole Moment    :     -0.48064      -0.51815      -0.49743
                        -----------------------------------------
Magnitude (a.u.)       :      0.86426
Magnitude (Debye)      :      2.19676

Dispersion correction in the Hessian             ... Starting D4

VIBRATIONAL FREQUENCIES
-----------------------

Scaling factor for frequencies =  1.000000000  (already applied!)

   0:         0.00 cm**-1
   1:         0.00 cm**-1
   2:         0.00 cm**-1
   3:         0.00 cm**-1
   4:         0.00 cm**-1
   5:         0.00 cm**-1
   6:        24.19 cm**-1
   7:        30.03 cm**-1
   8:        33.55 cm**-1
   9:        53.44 cm**-1
  10:        58.41 cm**-1
  11:        78.21 cm**-1
  12:        93.99 cm**-1
  13:       117.25 cm**-1
  14:       124.01 cm**-1
  15:       139.35 cm**-1
  16:       156.94 cm**-1
  17:       165.48 cm**-1
  18:       184.14 cm**-1
  19:       209.37 cm**-1
  20:       222.82 cm**-1
  21:       266.60 cm**-1
  22:       279.54 cm**-1
  23:       294.03 cm**-1
  24:       338.15 cm**-1
  25:       353.41 cm**-1
  26:       382.91 cm**-1
  27:       419.30 cm**-1
  28:       423.00 cm**-1
  29:       434.51 cm**-1
  30:       468.57 cm**-1
  31:       481.63 cm**-1
  32:       521.72 cm**-1
  33:       581.43 cm**-1
  34:       587.92 cm**-1
  35:       598.15 cm**-1
  36:       632.10 cm**-1
  37:       636.38 cm**-1
  38:       697.23 cm**-1
  39:       719.23 cm**-1
  40:       743.66 cm**-1
  41:       766.64 cm**-1
  42:       772.19 cm**-1
  43:       818.35 cm**-1
  44:       844.76 cm**-1
  45:       866.73 cm**-1
  46:       875.51 cm**-1
  47:       928.91 cm**-1
  48:       957.86 cm**-1
  49:       975.96 cm**-1
  50:       999.56 cm**-1
  51:      1002.64 cm**-1
  52:      1013.09 cm**-1
  53:      1017.82 cm**-1
  54:      1044.48 cm**-1
  55:      1051.37 cm**-1
  56:      1056.28 cm**-1
  57:      1060.45 cm**-1
  58:      1064.30 cm**-1
  59:      1091.90 cm**-1
  60:      1094.86 cm**-1
  61:      1130.53 cm**-1
  62:      1141.65 cm**-1
  63:      1165.82 cm**-1
  64:      1189.40 cm**-1
  65:      1191.71 cm**-1
  66:      1214.23 cm**-1
  67:      1216.73 cm**-1
  68:      1237.39 cm**-1
  69:      1247.02 cm**-1
  70:      1289.44 cm**-1
  71:      1294.68 cm**-1
  72:      1301.12 cm**-1
  73:      1317.28 cm**-1
  74:      1348.67 cm**-1
  75:      1366.18 cm**-1
  76:      1373.48 cm**-1
  77:      1375.78 cm**-1
  78:      1394.15 cm**-1
  79:      1414.60 cm**-1
  80:      1426.16 cm**-1
  81:      1449.88 cm**-1
  82:      1463.16 cm**-1
  83:      1476.88 cm**-1
  84:      1496.23 cm**-1
  85:      1500.55 cm**-1
  86:      1503.64 cm**-1
  87:      1514.01 cm**-1
  88:      1516.70 cm**-1
  89:      1518.35 cm**-1
  90:      1525.49 cm**-1
  91:      1529.23 cm**-1
  92:      1535.28 cm**-1
  93:      1541.04 cm**-1
  94:      1543.72 cm**-1
  95:      1548.75 cm**-1
  96:      1568.67 cm**-1
  97:      1645.68 cm**-1
  98:      1667.40 cm**-1
  99:      1739.62 cm**-1
 100:      1747.05 cm**-1
 101:      3022.56 cm**-1
 102:      3033.93 cm**-1
 103:      3039.13 cm**-1
 104:      3052.00 cm**-1
 105:      3060.54 cm**-1
 106:      3072.88 cm**-1
 107:      3076.48 cm**-1
 108:      3080.18 cm**-1
 109:      3081.12 cm**-1
 110:      3095.98 cm**-1
 111:      3114.97 cm**-1
 112:      3123.81 cm**-1
 113:      3139.51 cm**-1
 114:      3169.52 cm**-1
 115:      3171.86 cm**-1
 116:      3176.58 cm**-1
 117:      3176.91 cm**-1
 118:      3185.91 cm**-1
 119:      3187.00 cm**-1
 120:      3187.68 cm**-1
 121:      3194.61 cm**-1
 122:      3206.98 cm**-1

IR SPECTRUM
-----------

 Mode   freq       eps      Int      T**2         TX        TY        TZ
       cm**-1   L/(mol*cm) km/mol    a.u.
----------------------------------------------------------------------------
  6:     24.19   0.000065    0.33  0.000839  (-0.008923  0.025613  0.010157)
  7:     30.03   0.000549    2.77  0.005702  ( 0.065870  0.032497  0.017524)
  8:     33.55   0.000136    0.69  0.001263  (-0.032320 -0.009907  0.010982)
  9:     53.44   0.000480    2.43  0.002804  (-0.029725 -0.031751 -0.030200)
 10:     58.41   0.000324    1.64  0.001733  ( 0.027929  0.029495  0.009125)
 11:     78.21   0.000211    1.06  0.000841  (-0.000770  0.026663  0.011366)
 12:     93.99   0.000074    0.37  0.000246  (-0.007751  0.013280  0.003147)
 13:    117.25   0.000732    3.70  0.001949  ( 0.025787 -0.012464  0.033588)
 14:    124.01   0.001624    8.21  0.004087  (-0.028638  0.056409 -0.009237)
 15:    139.35   0.000264    1.33  0.000590  ( 0.010185 -0.021344  0.005570)
 16:    156.94   0.000242    1.22  0.000482  ( 0.001015 -0.019819 -0.009371)
 17:    165.48   0.000293    1.48  0.000553  ( 0.013753  0.015997  0.010409)
 18:    184.14   0.000217    1.10  0.000367  (-0.012990 -0.012107  0.007219)
 19:    209.37   0.000035    0.18  0.000052  ( 0.001246  0.006393  0.003053)
 20:    222.82   0.000425    2.15  0.000595  (-0.015477 -0.018500 -0.003592)
 21:    266.60   0.000278    1.40  0.000325  (-0.006322 -0.007499 -0.015130)
 22:    279.54   0.001690    8.54  0.001887  ( 0.011262  0.041887 -0.002314)
 23:    294.03   0.000175    0.88  0.000186  ( 0.011341 -0.007499  0.000859)
 24:    338.15   0.000072    0.36  0.000066  (-0.000126  0.005572  0.005912)
 25:    353.41   0.001029    5.20  0.000908  ( 0.003159 -0.010222  0.028174)
 26:    382.91   0.001274    6.44  0.001038  (-0.019282  0.015662 -0.020527)
 27:    419.30   0.000028    0.14  0.000021  ( 0.004515 -0.000159  0.000779)
 28:    423.00   0.000855    4.32  0.000631  ( 0.016600 -0.018122  0.005209)
 29:    434.51   0.000122    0.62  0.000088  (-0.009341  0.000715 -0.000171)
 30:    468.57   0.001773    8.96  0.001181  ( 0.031745  0.010290 -0.008213)
 31:    481.63   0.002899   14.65  0.001878  (-0.014572 -0.035796 -0.019617)
 32:    521.72   0.002198   11.11  0.001315  (-0.031020  0.003553  0.018435)
 33:    581.43   0.001803    9.11  0.000968  ( 0.020052 -0.020018  0.012848)
 34:    587.92   0.000164    0.83  0.000087  ( 0.005738  0.004275 -0.005991)
 35:    598.15   0.002192   11.08  0.001144  ( 0.031454 -0.012059  0.002962)
 36:    632.10   0.002116   10.69  0.001044  ( 0.002709  0.000990  0.032189)
 37:    636.38   0.000254    1.28  0.000125  (-0.004799 -0.002522 -0.009756)
 38:    697.23   0.000678    3.43  0.000304  (-0.011025 -0.011001  0.007814)
 39:    719.23   0.005347   27.02  0.002320  (-0.031809 -0.004884  0.035836)
 40:    743.66   0.001264    6.39  0.000530  ( 0.004057 -0.021526  0.007108)
 41:    766.64   0.001643    8.30  0.000669  (-0.012419 -0.005071  0.022111)
 42:    772.19   0.003369   17.03  0.001362  ( 0.023950 -0.001991 -0.028002)
 43:    818.35   0.002695   13.62  0.001028  (-0.002292 -0.022189  0.023024)
 44:    844.76   0.000886    4.48  0.000327  ( 0.001362  0.016817 -0.006518)
 45:    866.73   0.000182    0.92  0.000065  ( 0.005587  0.004247  0.004027)
 46:    875.51   0.000933    4.71  0.000333  ( 0.011315 -0.006955 -0.012494)
 47:    928.91   0.000794    4.01  0.000267  ( 0.011377  0.004680 -0.010740)
 48:    957.86   0.000093    0.47  0.000030  (-0.000885 -0.004816  0.002523)
 49:    975.96   0.000265    1.34  0.000085  ( 0.007899  0.000890 -0.004636)
 50:    999.56   0.001224    6.19  0.000382  ( 0.011081  0.005139 -0.015265)
 51:   1002.64   0.001359    6.87  0.000423  (-0.006730 -0.004530  0.018902)
 52:   1013.09   0.004439   22.43  0.001367  ( 0.031782 -0.017139  0.007960)
 53:   1017.82   0.000089    0.45  0.000027  (-0.004459  0.002660 -0.000550)
 54:   1044.48   0.000682    3.45  0.000204  (-0.011312  0.007788 -0.003889)
 55:   1051.37   0.002553   12.90  0.000758  (-0.014070  0.008596 -0.022042)
 56:   1056.28   0.002811   14.20  0.000830  ( 0.020476 -0.014595 -0.014074)
 57:   1060.45   0.000447    2.26  0.000132  (-0.005356 -0.001445 -0.010042)
 58:   1064.30   0.000848    4.29  0.000249  (-0.008633  0.004803 -0.012293)
 59:   1091.90   0.002344   11.85  0.000670  ( 0.005195 -0.003944 -0.025048)
 60:   1094.86   0.001205    6.09  0.000344  (-0.017832  0.003817 -0.003310)
 61:   1130.53   0.002146   10.85  0.000593  ( 0.001820  0.023550 -0.005880)
 62:   1141.65   0.000370    1.87  0.000101  (-0.004968  0.008660  0.001217)
 63:   1165.82   0.005907   29.85  0.001581  ( 0.006149  0.023741 -0.031300)
 64:   1189.40   0.001168    5.90  0.000307  (-0.002123 -0.014598  0.009429)
 65:   1191.71   0.000060    0.30  0.000016  ( 0.001367  0.002998 -0.002208)
 66:   1214.23   0.002759   13.95  0.000709  ( 0.002414 -0.003286 -0.026317)
 67:   1216.73   0.001840    9.30  0.000472  ( 0.000141 -0.006405 -0.020758)
 68:   1237.39   0.000004    0.02  0.000001  ( 0.000783 -0.000687 -0.000145)
 69:   1247.02   0.005396   27.27  0.001350  (-0.033935  0.010933  0.008904)
 70:   1289.44   0.005733   28.97  0.001388  ( 0.002317  0.020115  0.031266)
 71:   1294.68   0.021747  109.90  0.005242  (-0.044873  0.052599  0.021480)
 72:   1301.12   0.000510    2.58  0.000122  ( 0.002135  0.004206  0.009999)
 73:   1317.28   0.000469    2.37  0.000111  ( 0.008088  0.006299 -0.002457)
 74:   1348.67   0.001889    9.55  0.000437  (-0.005561  0.017393  0.010180)
 75:   1366.18   0.000205    1.04  0.000047  ( 0.005612 -0.000032 -0.003926)
 76:   1373.48   0.000190    0.96  0.000043  ( 0.003058 -0.004558 -0.003608)
 77:   1375.78   0.000098    0.49  0.000022  ( 0.001144  0.004562 -0.000146)
 78:   1394.15   0.001695    8.56  0.000379  ( 0.015424  0.003560 -0.011346)
 79:   1414.60   0.002620   13.24  0.000578  ( 0.018719  0.013522  0.006690)
 80:   1426.16   0.006580   33.25  0.001440  ( 0.031901 -0.010546 -0.017635)
 81:   1449.88   0.011686   59.05  0.002515  (-0.018217  0.030624 -0.035291)
 82:   1463.16   0.010466   52.89  0.002232  (-0.022495  0.038968 -0.014408)
 83:   1476.88   0.023168  117.08  0.004895  (-0.048503  0.032451  0.038596)
 84:   1496.23   0.003944   19.93  0.000823  ( 0.026152  0.005494 -0.010419)
 85:   1500.55   0.000863    4.36  0.000179  (-0.008165  0.002371 -0.010349)
 86:   1503.64   0.001334    6.74  0.000277  (-0.005729 -0.013984 -0.006968)
 87:   1514.01   0.001718    8.68  0.000354  (-0.002290  0.005937  0.017712)
 88:   1516.70   0.001962    9.91  0.000404  ( 0.003020 -0.019110 -0.005415)
 89:   1518.35   0.000963    4.87  0.000198  ( 0.011688  0.003076  0.007197)
 90:   1525.49   0.000877    4.43  0.000179  (-0.008484  0.009638  0.003824)
 91:   1529.23   0.001335    6.75  0.000272  ( 0.005033 -0.012576 -0.009432)
 92:   1535.28   0.002067   10.45  0.000420  (-0.004172 -0.015070 -0.013254)
 93:   1541.04   0.006161   31.14  0.001248  ( 0.022961  0.020572 -0.017241)
 94:   1543.72   0.002425   12.25  0.000490  (-0.003326 -0.014954 -0.015982)
 95:   1548.75   0.003345   16.91  0.000674  ( 0.023964 -0.004727  0.008802)
 96:   1568.67   0.007869   39.77  0.001565  ( 0.020536 -0.022558  0.025196)
 97:   1645.68   0.000252    1.27  0.000048  (-0.001135  0.004140  0.005418)
 98:   1667.40   0.001554    7.86  0.000291  ( 0.016708 -0.001778  0.002932)
 99:   1739.62   0.046720  236.10  0.008381  ( 0.034504  0.009072 -0.084310)
100:   1747.05   0.071924  363.47  0.012847  ( 0.090610  0.028674 -0.061765)
101:   3022.56   0.006245   31.56  0.000645  (-0.005025 -0.000957  0.024871)
102:   3033.93   0.009574   48.38  0.000985  (-0.020531  0.007818 -0.022408)
103:   3039.13   0.003981   20.12  0.000409  (-0.003666  0.012966 -0.015075)
104:   3052.00   0.003481   17.59  0.000356  ( 0.005047 -0.001247 -0.018135)
105:   3060.54   0.000657    3.32  0.000067  (-0.003075 -0.007160 -0.002496)
106:   3072.88   0.006361   32.14  0.000646  ( 0.003826  0.020315 -0.014785)
107:   3076.48   0.007869   39.77  0.000798  ( 0.013022  0.023804 -0.007875)
108:   3080.18   0.000661    3.34  0.000067  ( 0.000553 -0.008098  0.001032)
109:   3081.12   0.007688   38.85  0.000779  ( 0.007951  0.011367  0.024212)
110:   3095.98   0.007337   37.08  0.000740  ( 0.009458  0.024848 -0.005716)
111:   3114.97   0.002094   10.58  0.000210  ( 0.005379 -0.011742 -0.006555)
112:   3123.81   0.002171   10.97  0.000217  ( 0.010270 -0.002607  0.010228)
113:   3139.51   0.005366   27.12  0.000533  ( 0.003316 -0.022849  0.000486)
114:   3169.52   0.000264    1.33  0.000026  ( 0.001068 -0.004810  0.001304)
115:   3171.86   0.001857    9.39  0.000183  ( 0.006220 -0.011573  0.003179)
116:   3176.58   0.001505    7.61  0.000148  ( 0.009785 -0.001108 -0.007136)
117:   3176.91   0.000001    0.00  0.000000  (-0.000197  0.000180  0.000088)
118:   3185.91   0.001208    6.10  0.000118  ( 0.006665 -0.008311 -0.002189)
119:   3187.00   0.000914    4.62  0.000090  (-0.004225  0.007125 -0.004573)
120:   3187.68   0.001548    7.83  0.000152  ( 0.002040 -0.011763  0.003008)
121:   3194.61   0.007027   35.51  0.000686  ( 0.006936  0.023834  0.008382)
122:   3206.98   0.005151   26.03  0.000501  ( 0.019752 -0.005457  0.009019)

--------------------------
THERMOCHEMISTRY AT 298.15K
--------------------------

Temperature         ... 298.15 K
Pressure            ... 1.00 atm
Total Mass          ... 262.35 AMU

Throughout the following assumptions are being made:
  (1) The electronic state is orbitally nondegenerate
  (2) There are no thermally accessible electronically excited states
  (3) Hindered rotations indicated by low frequency modes are not
      treated as such but are treated as vibrations and this may
      cause some error
  (4) All equations used are the standard statistical mechanics
      equations for an ideal gas
  (5) All vibrations are strictly harmonic

freq.      24.19  E(vib)   ...       0.56
freq.      30.03  E(vib)   ...       0.55
freq.      33.55  E(vib)   ...       0.55
freq.      53.44  E(vib)   ...       0.52
freq.      58.41  E(vib)   ...       0.51
freq.      78.21  E(vib)   ...       0.49
freq.      93.99  E(vib)   ...       0.47
freq.     117.25  E(vib)   ...       0.44
freq.     124.01  E(vib)   ...       0.43
freq.     139.35  E(vib)   ...       0.42
freq.     156.94  E(vib)   ...       0.40
freq.     165.48  E(vib)   ...       0.39
freq.     184.14  E(vib)   ...       0.37
freq.     209.37  E(vib)   ...       0.34
freq.     222.82  E(vib)   ...       0.33
freq.     266.60  E(vib)   ...       0.29
freq.     279.54  E(vib)   ...       0.28
freq.     294.03  E(vib)   ...       0.27
freq.     338.15  E(vib)   ...       0.24
freq.     353.41  E(vib)   ...       0.22
freq.     382.91  E(vib)   ...       0.20
freq.     419.30  E(vib)   ...       0.18
freq.     423.00  E(vib)   ...       0.18
freq.     434.51  E(vib)   ...       0.17
freq.     468.57  E(vib)   ...       0.16
freq.     481.63  E(vib)   ...       0.15
freq.     521.72  E(vib)   ...       0.13
freq.     581.43  E(vib)   ...       0.11
freq.     587.92  E(vib)   ...       0.10
freq.     598.15  E(vib)   ...       0.10
freq.     632.10  E(vib)   ...       0.09
freq.     636.38  E(vib)   ...       0.09
freq.     697.23  E(vib)   ...       0.07
freq.     719.23  E(vib)   ...       0.07
freq.     743.66  E(vib)   ...       0.06
freq.     766.64  E(vib)   ...       0.06
freq.     772.19  E(vib)   ...       0.05
freq.     818.35  E(vib)   ...       0.05
freq.     844.76  E(vib)   ...       0.04
freq.     866.73  E(vib)   ...       0.04
freq.     875.51  E(vib)   ...       0.04
freq.     928.91  E(vib)   ...       0.03
freq.     957.86  E(vib)   ...       0.03
freq.     975.96  E(vib)   ...       0.03
freq.     999.56  E(vib)   ...       0.02
freq.    1002.64  E(vib)   ...       0.02
freq.    1013.09  E(vib)   ...       0.02
freq.    1017.82  E(vib)   ...       0.02
freq.    1044.48  E(vib)   ...       0.02
freq.    1051.37  E(vib)   ...       0.02
freq.    1056.28  E(vib)   ...       0.02
freq.    1060.45  E(vib)   ...       0.02
freq.    1064.30  E(vib)   ...       0.02
freq.    1091.90  E(vib)   ...       0.02
freq.    1094.86  E(vib)   ...       0.02
freq.    1130.53  E(vib)   ...       0.01
freq.    1141.65  E(vib)   ...       0.01
freq.    1165.82  E(vib)   ...       0.01
freq.    1189.40  E(vib)   ...       0.01
freq.    1191.71  E(vib)   ...       0.01
freq.    1214.23  E(vib)   ...       0.01
freq.    1216.73  E(vib)   ...       0.01
freq.    1237.39  E(vib)   ...       0.01
freq.    1247.02  E(vib)   ...       0.01
freq.    1289.44  E(vib)   ...       0.01
freq.    1294.68  E(vib)   ...       0.01
freq.    1301.12  E(vib)   ...       0.01
freq.    1317.28  E(vib)   ...       0.01
freq.    1348.67  E(vib)   ...       0.01
freq.    1366.18  E(vib)   ...       0.01
freq.    1373.48  E(vib)   ...       0.01
freq.    1375.78  E(vib)   ...       0.01
freq.    1394.15  E(vib)   ...       0.00
freq.    1414.60  E(vib)   ...       0.00
freq.    1426.16  E(vib)   ...       0.00
freq.    1449.88  E(vib)   ...       0.00
freq.    1463.16  E(vib)   ...       0.00
freq.    1476.88  E(vib)   ...       0.00
freq.    1496.23  E(vib)   ...       0.00
freq.    1500.55  E(vib)   ...       0.00
freq.    1503.64  E(vib)   ...       0.00
freq.    1514.01  E(vib)   ...       0.00
freq.    1516.70  E(vib)   ...       0.00
freq.    1518.35  E(vib)   ...       0.00
freq.    1525.49  E(vib)   ...       0.00
freq.    1529.23  E(vib)   ...       0.00
freq.    1535.28  E(vib)   ...       0.00
freq.    1541.04  E(vib)   ...       0.00
freq.    1543.72  E(vib)   ...       0.00
freq.    1548.75  E(vib)   ...       0.00
freq.    1568.67  E(vib)   ...       0.00
freq.    1645.68  E(vib)   ...       0.00
freq.    1667.40  E(vib)   ...       0.00
freq.    1739.62  E(vib)   ...       0.00
freq.    1747.05  E(vib)   ...       0.00
freq.    3022.56  E(vib)   ...       0.00
freq.    3033.93  E(vib)   ...       0.00
freq.    3039.13  E(vib)   ...       0.00
freq.    3052.00  E(vib)   ...       0.00
freq.    3060.54  E(vib)   ...       0.00
freq.    3072.88  E(vib)   ...       0.00
freq.    3076.48  E(vib)   ...       0.00
freq.    3080.18  E(vib)   ...       0.00
freq.    3081.12  E(vib)   ...       0.00
freq.    3095.98  E(vib)   ...       0.00
freq.    3114.97  E(vib)   ...       0.00
freq.    3123.81  E(vib)   ...       0.00
freq.    3139.51  E(vib)   ...       0.00
freq.    3169.52  E(vib)   ...       0.00
freq.    3171.86  E(vib)   ...       0.00
freq.    3176.58  E(vib)   ...       0.00
freq.    3176.91  E(vib)   ...       0.00
freq.    3185.91  E(vib)   ...       0.00
freq.    3187.00  E(vib)   ...       0.00
freq.    3187.68  E(vib)   ...       0.00
freq.    3194.61  E(vib)   ...       0.00
freq.    3206.98  E(vib)   ...       0.00

------------
INNER ENERGY
------------

The inner energy is: U= E(el) + E(ZPE) + E(vib) + E(rot) + E(trans)
    E(el)   - is the total energy from the electronic structure calculation
              = E(kin-el) + E(nuc-el) + E(el-el) + E(nuc-nuc)
    E(ZPE)  - the the zero temperature vibrational energy from the frequency calculation
    E(vib)  - the the finite temperature correction to E(ZPE) due to population
              of excited vibrational states
    E(rot)  - is the rotational thermal energy
    E(trans)- is the translational thermal energy

Summary of contributions to the inner energy U:
Electronic energy                ...   -844.36068828 Eh
Zero point energy                ...      0.35578560 Eh     223.26 kcal/mol
Thermal vibrational correction   ...      0.01706212 Eh      10.71 kcal/mol
Thermal rotational correction    ...      0.00141627 Eh       0.89 kcal/mol
Thermal translational correction ...      0.00141627 Eh       0.89 kcal/mol
-----------------------------------------------------------------------
Total thermal energy                   -843.98500801 Eh

Summary of corrections to the electronic energy:
(perhaps to be used in another calculation)
Total thermal correction                  0.01989467 Eh      12.48 kcal/mol

Rotational constants in cm-1:     0.018895     0.007651     0.006432

                             ****ORCA TERMINATED NORMALLY****
TOTAL RUN TIME: 0 days 0 hours 44 minutes 19 seconds 864 msec
