                         Program Version 5.0.4 -  RELEASE  -
|  1> ! OPT FREQ B3LYP 6-31+G(d) D4 AUTOAUX CPCM(water)
|  2>
|  3> %PAL NPROCS 4 END
|  4>
|  5> %maxcore 3375
|  6>
|  7> *xyzfile -1 1 /users/fjb15167/WWenergy/structures/Nd.xyz
|  8>
|  9>                          ****END OF INPUT****
 Total Charge           Charge          ....   -1
 Multiplicity           Mult            ....    1
 Number of Electrons    NEL             ....  108
Dispersion correction           -0.046392996
FINAL SINGLE POINT ENERGY      -722.950506283616
Dispersion correction            ... Starting D4
Dispersion correction           -0.046074049
FINAL SINGLE POINT ENERGY      -722.953921741788
Dispersion correction            ... Starting D4
Dispersion correction           -0.045977785
FINAL SINGLE POINT ENERGY      -722.953755032260
Dispersion correction            ... Starting D4
FINAL SINGLE POINT ENERGY      -722.955179208611
FINAL SINGLE POINT ENERGY      -722.955436123254
FINAL SINGLE POINT ENERGY      -722.955679377386
FINAL SINGLE POINT ENERGY      -722.955868872992
FINAL SINGLE POINT ENERGY      -722.956020510197
FINAL SINGLE POINT ENERGY      -722.956119910703
FINAL SINGLE POINT ENERGY      -722.956180533816
FINAL SINGLE POINT ENERGY      -722.956211015043
FINAL SINGLE POINT ENERGY      -722.956245978965
FINAL SINGLE POINT ENERGY      -722.956273862428
Dispersion correction           -0.046113376
FINAL SINGLE POINT ENERGY      -722.956281854947
Dispersion correction            ... Starting D4
Dispersion correction           -0.046110339
FINAL SINGLE POINT ENERGY      -722.956283557753
Dispersion correction            ... Starting D4
                    ***********************HURRAY********************

CARTESIAN COORDINATES (ANGSTROEM)
---------------------------------
  C      1.450954    2.945664    0.218487
  H      1.287520    3.133942    1.286939
  H      1.436931    3.900178   -0.311161
  H      2.438427    2.485484    0.108798
  C      0.352071    2.067499   -0.346947
  O     -0.471303    2.522083   -1.167160
  N      0.294785    0.778978    0.071592
  C     -0.705026   -0.095710   -0.506127
  H     -0.880686    0.200059   -1.543232
  H     -0.310498   -1.116623   -0.516118
  C      1.232195    0.195056    1.022974
  H      1.526641    0.940169    1.765407
  C     -2.029772   -0.062212    0.275921
  N     -3.044862   -0.816749   -0.215736
  O     -2.145935    0.634184    1.297443
  C     -4.295562   -0.919210    0.534564
  H     -5.132945   -0.953113   -0.169284
  H     -4.309952   -1.833065    1.144753
  H     -4.401671   -0.052822    1.186763
  C     -2.878695   -1.782440   -1.303025
  H     -3.835728   -1.890006   -1.821425
  H     -2.139140   -1.443235   -2.028365
  H     -2.577557   -2.765836   -0.916276
  C      2.518055   -0.419353    0.402370
  O      2.677078   -0.358969   -0.846181
  H      0.709509   -0.592999    1.574296
  O      3.306165   -0.935951    1.247730

 Multiplicity           Mult            ....    1
 Number of Electrons    NEL             ....  108
 Basis Dimension        Dim             ....  278

ORBITAL ENERGIES
----------------

  NO   OCC          E(Eh)            E(eV)
   0   2.0000     -19.121702      -520.3280
   1   2.0000     -19.117770      -520.2210
   2   2.0000     -19.094850      -519.5973
   3   2.0000     -19.092357      -519.5294
   4   2.0000     -14.368289      -390.9810
   5   2.0000     -14.362703      -390.8290
   6   2.0000     -10.289437      -279.9898
   7   2.0000     -10.286593      -279.9124
   8   2.0000     -10.270797      -279.4826
   9   2.0000     -10.219199      -278.0785
  10   2.0000     -10.207394      -277.7573
  11   2.0000     -10.207327      -277.7555
  12   2.0000     -10.201396      -277.5941
  13   2.0000     -10.174654      -276.8664
  14   2.0000      -1.041872       -28.3508
  15   2.0000      -1.031060       -28.0566
  16   2.0000      -1.022045       -27.8112
  17   2.0000      -0.938576       -25.5400
  18   2.0000      -0.936439       -25.4818
  19   2.0000      -0.931076       -25.3359
  20   2.0000      -0.765360       -20.8265
  21   2.0000      -0.730259       -19.8714
  22   2.0000      -0.717773       -19.5316
  23   2.0000      -0.705999       -19.2112
  24   2.0000      -0.673235       -18.3196
  25   2.0000      -0.568084       -15.4583
  26   2.0000      -0.538928       -14.6650
  27   2.0000      -0.517692       -14.0871
  28   2.0000      -0.499858       -13.6018
  29   2.0000      -0.491478       -13.3738
  30   2.0000      -0.480023       -13.0621
  31   2.0000      -0.472814       -12.8659
  32   2.0000      -0.463322       -12.6076
  33   2.0000      -0.447432       -12.1752
  34   2.0000      -0.424442       -11.5496
  35   2.0000      -0.421250       -11.4628
  36   2.0000      -0.417750       -11.3676
  37   2.0000      -0.409631       -11.1466
  38   2.0000      -0.405758       -11.0412
  39   2.0000      -0.402145       -10.9429
  40   2.0000      -0.399222       -10.8634
  41   2.0000      -0.391830       -10.6622
  42   2.0000      -0.386317       -10.5122
  43   2.0000      -0.378888       -10.3101
  44   2.0000      -0.362757        -9.8711
  45   2.0000      -0.354039        -9.6339
  46   2.0000      -0.350758        -9.5446
  47   2.0000      -0.272424        -7.4130
  48   2.0000      -0.263663        -7.1746
  49   2.0000      -0.260414        -7.0862
  50   2.0000      -0.253675        -6.9028
  51   2.0000      -0.246831        -6.7166
  52   2.0000      -0.237471        -6.4619
  53   2.0000      -0.227194        -6.1823
  54   0.0000       0.004963         0.1351
  55   0.0000       0.013591         0.3698
  56   0.0000       0.015950         0.4340
  57   0.0000       0.022378         0.6089
  58   0.0000       0.028232         0.7682

MULLIKEN ATOMIC CHARGES
-----------------------
   0 C :   -0.916459
   1 H :    0.256554
   2 H :    0.237705
   3 H :    0.254366
   4 C :    0.844437
   5 O :   -0.639906
   6 N :    0.088021
   7 C :   -1.190602
   8 H :    0.269311
   9 H :    0.266826
  10 C :   -0.674445
  11 H :    0.247198
  12 C :    0.863162
  13 N :   -0.158281
  14 O :   -0.610348
  15 C :   -0.573469
  16 H :    0.224256
  17 H :    0.230325
  18 H :    0.238925
  19 C :   -0.516664
  20 H :    0.224531
  21 H :    0.232409
  22 H :    0.235022
  23 C :    0.691155
  24 O :   -0.675889
  25 H :    0.244733
  26 O :   -0.692874
Sum of atomic charges:   -1.0000000

LOEWDIN ATOMIC CHARGES
----------------------
   0 C :   -0.465973
   1 H :    0.225424
   2 H :    0.215252
   3 H :    0.225798
   4 C :    0.108634
   5 O :   -0.478905
   6 N :   -0.281217
   7 C :   -0.229814
   8 H :    0.256110
   9 H :    0.250613
  10 C :   -0.250956
  11 H :    0.241106
  12 C :    0.117824
  13 N :   -0.328762
  14 O :   -0.445671
  15 C :   -0.351086
  16 H :    0.208179
  17 H :    0.209077
  18 H :    0.227139
  19 C :   -0.358204
  20 H :    0.212420
  21 H :    0.218091
  22 H :    0.211839
  23 C :    0.122925
  24 O :   -0.532373
  25 H :    0.241116
  26 O :   -0.568585

  Mayer bond orders larger than 0.100000
B(  0-C ,  1-H ) :   0.9508 B(  0-C ,  2-H ) :   1.0010 B(  0-C ,  3-H ) :   0.9489
B(  0-C ,  4-C ) :   0.4225 B(  0-C ,  6-N ) :  -0.1141 B(  4-C ,  5-O ) :   1.6590
B(  4-C ,  6-N ) :   1.2297 B(  5-O ,  7-C ) :  -0.1186 B(  6-N ,  7-C ) :   0.7658
B(  6-N , 10-C ) :   0.7226 B(  7-C ,  8-H ) :   1.0743 B(  7-C ,  9-H ) :   0.9903
B(  7-C , 12-C ) :   0.3343 B(  7-C , 13-N ) :  -0.1145 B(  8-H , 12-C ) :  -0.1110
B( 10-C , 11-H ) :   0.9583 B( 10-C , 23-C ) :   0.7645 B( 10-C , 24-O ) :  -0.1037
B( 10-C , 25-H ) :   0.9545 B( 12-C , 13-N ) :   1.3038 B( 12-C , 14-O ) :   1.7238
B( 13-N , 15-C ) :   0.8549 B( 13-N , 19-C ) :   0.8372 B( 15-C , 16-H ) :   0.9343
B( 15-C , 17-H ) :   0.9442 B( 15-C , 18-H ) :   0.9464 B( 19-C , 20-H ) :   0.9355
B( 19-C , 21-H ) :   0.9289 B( 19-C , 22-H ) :   0.9325 B( 23-C , 24-O ) :   1.5902
B( 23-C , 26-O ) :   1.4489

Dispersion correction           -0.046107010
FINAL SINGLE POINT ENERGY      -722.956285800057

DIPOLE MOMENT
-------------
                                X             Y             Z
Electronic contribution:      6.11925       2.23242       0.52726
Nuclear contribution   :    -11.90394      -3.15808      -0.81641
                        -----------------------------------------
Total Dipole Moment    :     -5.78469      -0.92566      -0.28915
                        -----------------------------------------
Magnitude (a.u.)       :      5.86541
Magnitude (Debye)      :     14.90869

Dispersion correction in the Hessian             ... Starting D4

VIBRATIONAL FREQUENCIES
-----------------------

Scaling factor for frequencies =  1.000000000  (already applied!)

   0:         0.00 cm**-1
   1:         0.00 cm**-1
   2:         0.00 cm**-1
   3:         0.00 cm**-1
   4:         0.00 cm**-1
   5:         0.00 cm**-1
   6:        28.30 cm**-1
   7:        44.83 cm**-1
   8:        51.25 cm**-1
   9:        59.96 cm**-1
  10:        61.62 cm**-1
  11:        75.55 cm**-1
  12:        80.90 cm**-1
  13:       105.22 cm**-1
  14:       129.92 cm**-1
  15:       177.68 cm**-1
  16:       196.95 cm**-1
  17:       225.27 cm**-1
  18:       249.09 cm**-1
  19:       316.03 cm**-1
  20:       362.31 cm**-1
  21:       394.84 cm**-1
  22:       414.61 cm**-1
  23:       435.89 cm**-1
  24:       457.98 cm**-1
  25:       522.77 cm**-1
  26:       562.84 cm**-1
  27:       585.94 cm**-1
  28:       596.21 cm**-1
  29:       619.33 cm**-1
  30:       646.25 cm**-1
  31:       703.56 cm**-1
  32:       810.14 cm**-1
  33:       824.80 cm**-1
  34:       892.91 cm**-1
  35:       958.39 cm**-1
  36:       975.01 cm**-1
  37:       995.80 cm**-1
  38:      1016.43 cm**-1
  39:      1059.39 cm**-1
  40:      1082.76 cm**-1
  41:      1114.66 cm**-1
  42:      1125.50 cm**-1
  43:      1163.04 cm**-1
  44:      1179.03 cm**-1
  45:      1226.46 cm**-1
  46:      1276.23 cm**-1
  47:      1282.95 cm**-1
  48:      1331.98 cm**-1
  49:      1360.24 cm**-1
  50:      1382.29 cm**-1
  51:      1392.22 cm**-1
  52:      1405.75 cm**-1
  53:      1438.42 cm**-1
  54:      1450.04 cm**-1
  55:      1467.20 cm**-1
  56:      1473.07 cm**-1
  57:      1481.90 cm**-1
  58:      1485.17 cm**-1
  59:      1493.66 cm**-1
  60:      1498.31 cm**-1
  61:      1501.61 cm**-1
  62:      1513.65 cm**-1
  63:      1518.38 cm**-1
  64:      1542.06 cm**-1
  65:      1607.81 cm**-1
  66:      1647.14 cm**-1
  67:      1672.40 cm**-1
  68:      3035.21 cm**-1
  69:      3040.14 cm**-1
  70:      3058.14 cm**-1
  71:      3083.38 cm**-1
  72:      3091.40 cm**-1
  73:      3109.48 cm**-1
  74:      3117.75 cm**-1
  75:      3121.78 cm**-1
  76:      3138.68 cm**-1
  77:      3140.61 cm**-1
  78:      3161.41 cm**-1
  79:      3175.80 cm**-1
  80:      3180.74 cm**-1

IR SPECTRUM
-----------

 Mode   freq       eps      Int      T**2         TX        TY        TZ
       cm**-1   L/(mol*cm) km/mol    a.u.
----------------------------------------------------------------------------
  6:     28.30   0.000216    1.09  0.002386  ( 0.048594  0.000377 -0.004960)
  7:     44.83   0.002490   12.59  0.017336  ( 0.099844  0.019935  0.083485)
  8:     51.25   0.006021   30.43  0.036662  (-0.061124 -0.173310  0.053756)
  9:     59.96   0.001845    9.33  0.009605  ( 0.084933  0.040017  0.028110)
 10:     61.62   0.000929    4.69  0.004704  (-0.031816 -0.046898  0.038626)
 11:     75.55   0.000508    2.57  0.002098  ( 0.045227 -0.007105 -0.001367)
 12:     80.90   0.000307    1.55  0.001183  ( 0.025830 -0.011671  0.019492)
 13:    105.22   0.003282   16.59  0.009735  ( 0.032758 -0.028475 -0.088604)
 14:    129.92   0.000576    2.91  0.001384  ( 0.029031 -0.009298  0.021316)
 15:    177.68   0.000086    0.43  0.000151  ( 0.000615 -0.006668  0.010285)
 16:    196.95   0.001640    8.29  0.002599  ( 0.031465 -0.037453  0.014364)
 17:    225.27   0.001939    9.80  0.002686  ( 0.030424 -0.008557  0.041069)
 18:    249.09   0.000463    2.34  0.000580  (-0.000373 -0.020085 -0.013288)
 19:    316.03   0.002517   12.72  0.002485  (-0.000175  0.046360 -0.018323)
 20:    362.31   0.002090   10.56  0.001800  ( 0.041412  0.009220  0.000127)
 21:    394.84   0.001871    9.46  0.001479  ( 0.037920  0.005815 -0.002680)
 22:    414.61   0.001392    7.03  0.001048  (-0.004589  0.031602  0.005294)
 23:    435.89   0.003391   17.14  0.002428  ( 0.028531  0.035752 -0.018312)
 24:    457.98   0.000785    3.97  0.000535  (-0.019750  0.009244  0.007699)
 25:    522.77   0.006791   34.32  0.004054  (-0.040694 -0.046196 -0.016237)
 26:    562.84   0.002809   14.20  0.001558  ( 0.031784 -0.006763  0.022396)
 27:    585.94   0.000801    4.05  0.000427  (-0.012847  0.001491 -0.016106)
 28:    596.21   0.000730    3.69  0.000382  ( 0.006227 -0.016618 -0.008211)
 29:    619.33   0.004290   21.68  0.002162  (-0.040883  0.013515  0.017542)
 30:    646.25   0.007106   35.91  0.003431  ( 0.040456 -0.041622 -0.007883)
 31:    703.56   0.007619   38.51  0.003380  (-0.031675 -0.000250  0.048747)
 32:    810.14   0.002754   13.92  0.001061  (-0.000800  0.003421  0.032378)
 33:    824.80   0.005124   25.89  0.001939  ( 0.019559 -0.033166 -0.021354)
 34:    892.91   0.006163   31.14  0.002154  (-0.038016  0.024866 -0.009502)
 35:    958.39   0.000151    0.76  0.000049  (-0.001215 -0.006904 -0.000123)
 36:    975.01   0.003474   17.55  0.001112  ( 0.019923 -0.007817  0.025568)
 37:    995.80   0.011539   58.32  0.003616  (-0.025449 -0.054325 -0.004165)
 38:   1016.43   0.010772   54.44  0.003307  ( 0.018475 -0.044892  0.030831)
 39:   1059.39   0.002572   13.00  0.000758  (-0.019494  0.007999  0.017708)
 40:   1082.76   0.004104   20.74  0.001183  (-0.011485  0.018917  0.026327)
 41:   1114.66   0.001090    5.51  0.000305  (-0.011647 -0.012784 -0.002444)
 42:   1125.50   0.000856    4.32  0.000237  ( 0.007618 -0.006294 -0.011815)
 43:   1163.04   0.036401  183.96  0.009767  (-0.076370 -0.054092 -0.031761)
 44:   1179.03   0.005650   28.55  0.001495  (-0.032568 -0.020606  0.003181)
 45:   1226.46   0.003856   19.48  0.000981  ( 0.028052  0.002139  0.013767)
 46:   1276.23   0.021496  108.63  0.005256  (-0.018876 -0.067079  0.020009)
 47:   1282.95   0.012542   63.38  0.003051  ( 0.047232 -0.028564  0.002004)
 48:   1331.98   0.023118  116.83  0.005416  (-0.036836  0.055525 -0.031247)
 49:   1360.24   0.019109   96.57  0.004384  ( 0.062927  0.009212  0.018422)
 50:   1382.29   0.015801   79.85  0.003567  (-0.021798 -0.054683 -0.010093)
 51:   1392.22   0.063323  320.01  0.014194  ( 0.095976 -0.061021 -0.035479)
 52:   1405.75   0.002491   12.59  0.000553  ( 0.014275  0.010693  0.015327)
 53:   1438.42   0.022576  114.09  0.004898  (-0.055935 -0.041990 -0.002442)
 54:   1450.04   0.005592   28.26  0.001203  (-0.019846 -0.003720  0.028209)
 55:   1467.20   0.021795  110.14  0.004636  ( 0.021750 -0.027741  0.058250)
 56:   1473.07   0.006904   34.89  0.001462  (-0.015015 -0.034843 -0.004792)
 57:   1481.90   0.016316   82.45  0.003436  ( 0.004487 -0.054637 -0.020748)
 58:   1485.17   0.006970   35.22  0.001464  (-0.001993 -0.038107  0.002890)
 59:   1493.66   0.004507   22.78  0.000942  (-0.013842 -0.012829  0.024197)
 60:   1498.31   0.002434   12.30  0.000507  (-0.008578  0.008216 -0.019129)
 61:   1501.61   0.003780   19.10  0.000786  (-0.026816  0.001146  0.008071)
 62:   1513.65   0.010572   53.42  0.002179  (-0.028495 -0.033271 -0.016142)
 63:   1518.38   0.017434   88.10  0.003583  (-0.021581 -0.055349  0.007333)
 64:   1542.06   0.022458  113.49  0.004545  ( 0.060146  0.030394 -0.001836)
 65:   1607.81   0.224148  1132.75  0.043505  ( 0.053554 -0.051677  0.194851)
 66:   1647.14   0.178923  904.20  0.033898  (-0.090812  0.081671 -0.137773)
 67:   1672.40   0.138581  700.33  0.025859  (-0.018965 -0.132637 -0.088919)
 68:   3035.21   0.009710   49.07  0.000998  ( 0.023323  0.002741 -0.021139)
 69:   3040.14   0.018840   95.21  0.001934  (-0.010347 -0.042663 -0.002592)
 70:   3058.14   0.000924    4.67  0.000094  ( 0.005778  0.005592  0.005443)
 71:   3083.38   0.004924   24.88  0.000498  ( 0.008647  0.005390  0.019863)
 72:   3091.40   0.006527   32.99  0.000659  ( 0.003144  0.022048 -0.012763)
 73:   3109.48   0.007337   37.08  0.000736  (-0.019979  0.009240 -0.015867)
 74:   3117.75   0.006346   32.07  0.000635  ( 0.015805 -0.004315  0.019151)
 75:   3121.78   0.001734    8.76  0.000173  (-0.010166  0.001510  0.008227)
 76:   3138.68   0.001832    9.26  0.000182  ( 0.009070  0.006354  0.007713)
 77:   3140.61   0.001558    7.87  0.000155  (-0.006498 -0.009436 -0.004854)
 78:   3161.41   0.003225   16.30  0.000318  (-0.003821  0.015234 -0.008463)
 79:   3175.80   0.003025   15.28  0.000297  (-0.013378 -0.005941  0.009107)
 80:   3180.74   0.001297    6.56  0.000127  (-0.002330  0.008505  0.007037)

--------------------------
THERMOCHEMISTRY AT 298.15K
--------------------------

Temperature         ... 298.15 K
Pressure            ... 1.00 atm
Total Mass          ... 201.20 AMU

Throughout the following assumptions are being made:
  (1) The electronic state is orbitally nondegenerate
  (2) There are no thermally accessible electronically excited states
  (3) Hindered rotations indicated by low frequency modes are not
      treated as such but are treated as vibrations and this may
      cause some error
  (4) All equations used are the standard statistical mechanics
      equations for an ideal gas
  (5) All vibrations are strictly harmonic

freq.      28.30  E(vib)   ...       0.55
freq.      44.83  E(vib)   ...       0.53
freq.      51.25  E(vib)   ...       0.52
freq.      59.96  E(vib)   ...       0.51
freq.      61.62  E(vib)   ...       0.51
freq.      75.55  E(vib)   ...       0.49
freq.      80.90  E(vib)   ...       0.48
freq.     105.22  E(vib)   ...       0.45
freq.     129.92  E(vib)   ...       0.43
freq.     177.68  E(vib)   ...       0.37
freq.     196.95  E(vib)   ...       0.35
freq.     225.27  E(vib)   ...       0.33
freq.     249.09  E(vib)   ...       0.31
freq.     316.03  E(vib)   ...       0.25
freq.     362.31  E(vib)   ...       0.22
freq.     394.84  E(vib)   ...       0.20
freq.     414.61  E(vib)   ...       0.19
freq.     435.89  E(vib)   ...       0.17
freq.     457.98  E(vib)   ...       0.16
freq.     522.77  E(vib)   ...       0.13
freq.     562.84  E(vib)   ...       0.11
freq.     585.94  E(vib)   ...       0.11
freq.     596.21  E(vib)   ...       0.10
freq.     619.33  E(vib)   ...       0.09
freq.     646.25  E(vib)   ...       0.09
freq.     703.56  E(vib)   ...       0.07
freq.     810.14  E(vib)   ...       0.05
freq.     824.80  E(vib)   ...       0.04
freq.     892.91  E(vib)   ...       0.03
freq.     958.39  E(vib)   ...       0.03
freq.     975.01  E(vib)   ...       0.03
freq.     995.80  E(vib)   ...       0.02
freq.    1016.43  E(vib)   ...       0.02
freq.    1059.39  E(vib)   ...       0.02
freq.    1082.76  E(vib)   ...       0.02
freq.    1114.66  E(vib)   ...       0.01
freq.    1125.50  E(vib)   ...       0.01
freq.    1163.04  E(vib)   ...       0.01
freq.    1179.03  E(vib)   ...       0.01
freq.    1226.46  E(vib)   ...       0.01
freq.    1276.23  E(vib)   ...       0.01
freq.    1282.95  E(vib)   ...       0.01
freq.    1331.98  E(vib)   ...       0.01
freq.    1360.24  E(vib)   ...       0.01
freq.    1382.29  E(vib)   ...       0.01
freq.    1392.22  E(vib)   ...       0.00
freq.    1405.75  E(vib)   ...       0.00
freq.    1438.42  E(vib)   ...       0.00
freq.    1450.04  E(vib)   ...       0.00
freq.    1467.20  E(vib)   ...       0.00
freq.    1473.07  E(vib)   ...       0.00
freq.    1481.90  E(vib)   ...       0.00
freq.    1485.17  E(vib)   ...       0.00
freq.    1493.66  E(vib)   ...       0.00
freq.    1498.31  E(vib)   ...       0.00
freq.    1501.61  E(vib)   ...       0.00
freq.    1513.65  E(vib)   ...       0.00
freq.    1518.38  E(vib)   ...       0.00
freq.    1542.06  E(vib)   ...       0.00
freq.    1607.81  E(vib)   ...       0.00
freq.    1647.14  E(vib)   ...       0.00
freq.    1672.40  E(vib)   ...       0.00
freq.    3035.21  E(vib)   ...       0.00
freq.    3040.14  E(vib)   ...       0.00
freq.    3058.14  E(vib)   ...       0.00
freq.    3083.38  E(vib)   ...       0.00
freq.    3091.40  E(vib)   ...       0.00
freq.    3109.48  E(vib)   ...       0.00
freq.    3117.75  E(vib)   ...       0.00
freq.    3121.78  E(vib)   ...       0.00
freq.    3138.68  E(vib)   ...       0.00
freq.    3140.61  E(vib)   ...       0.00
freq.    3161.41  E(vib)   ...       0.00
freq.    3175.80  E(vib)   ...       0.00
freq.    3180.74  E(vib)   ...       0.00

------------
INNER ENERGY
------------

The inner energy is: U= E(el) + E(ZPE) + E(vib) + E(rot) + E(trans)
    E(el)   - is the total energy from the electronic structure calculation
              = E(kin-el) + E(nuc-el) + E(el-el) + E(nuc-nuc)
    E(ZPE)  - the the zero temperature vibrational energy from the frequency calculation
    E(vib)  - the the finite temperature correction to E(ZPE) due to population
              of excited vibrational states
    E(rot)  - is the rotational thermal energy
    E(trans)- is the translational thermal energy

Summary of contributions to the inner energy U:
Electronic energy                ...   -722.95628580 Eh
Zero point energy                ...      0.21689614 Eh     136.10 kcal/mol
Thermal vibrational correction   ...      0.01297173 Eh       8.14 kcal/mol
Thermal rotational correction    ...      0.00141627 Eh       0.89 kcal/mol
Thermal translational correction ...      0.00141627 Eh       0.89 kcal/mol
-----------------------------------------------------------------------
Total thermal energy                   -722.72358538 Eh

Summary of corrections to the electronic energy:
(perhaps to be used in another calculation)
Total thermal correction                  0.01580428 Eh       9.92 kcal/mol
Non-thermal (ZPE) correction              0.21689614 Eh     136.10 kcal/mol
-----------------------------------------------------------------------
Total correction                          0.23270042 Eh     146.02 kcal/mol

--------
ENTHALPY
--------

The enthalpy is H = U + kB*T
                kB is Boltzmann's constant
Total free energy                 ...   -722.72358538 Eh
Thermal Enthalpy correction       ...      0.00094421 Eh       0.59 kcal/mol
-----------------------------------------------------------------------
Total Enthalpy                    ...   -722.72264117 Eh

Note: Only C1 symmetry has been detected, increase convergence thresholds
      if your molecule has a higher symmetry. Symmetry factor of 1.0 is
      used for the rotational entropy correction.

Note: Rotational entropy computed according to Herzberg
Infrared and Raman Spectra, Chapter V,1, Van Nostrand Reinhold, 1945
Point Group:  C1, Symmetry Number:   1
Rotational constants in cm-1:     0.033641     0.013310     0.011394

Vibrational entropy computed according to the QRRHO of S. Grimme
Chem.Eur.J. 2012 18 9955

-------
ENTROPY
-------

The entropy contributions are T*S = T*(S(el)+S(vib)+S(rot)+S(trans))
     S(el)   - electronic entropy
     S(vib)  - vibrational entropy
     S(rot)  - rotational entropy
     S(trans)- translational entropy
The entropies will be listed as multiplied by the temperature to get
units of energy

                             ****ORCA TERMINATED NORMALLY****
TOTAL RUN TIME: 0 days 0 hours 45 minutes 36 seconds 316 msec
