                         Program Version 5.0.4 -  RELEASE  -
|  1> ! OPT FREQ B3LYP 6-31G(d) D4 AUTOAUX
|  2> ! CPCM
|  3>
|  4> %cpcm
|  5> epsilon 9.8629
|  6> refrac  1.4295
|  7> end
|  8>
|  9> %PAL NPROCS 4 END
| 10>
| 11> %maxcore 3375
| 12>
| 13> *xyzfile 0 1 /users/fjb15167/WWenergy/structures/Nf.xyz
| 14>
| 15>                          ****END OF INPUT****
 Total Charge           Charge          ....    0
 Multiplicity           Mult            ....    1
 Number of Electrons    NEL             ....  126
Dispersion correction           -0.069136420
FINAL SINGLE POINT ENERGY      -765.793461963469
Dispersion correction            ... Starting D4
Dispersion correction           -0.068506465
FINAL SINGLE POINT ENERGY      -765.793905476166
Dispersion correction            ... Starting D4
Dispersion correction           -0.068983863
FINAL SINGLE POINT ENERGY      -765.793948255380
Dispersion correction            ... Starting D4
FINAL SINGLE POINT ENERGY      -765.794067665187
FINAL SINGLE POINT ENERGY      -765.794075037561
FINAL SINGLE POINT ENERGY      -765.794103195664
FINAL SINGLE POINT ENERGY      -765.794110072405
Dispersion correction           -0.068843939
FINAL SINGLE POINT ENERGY      -765.794111937554
Dispersion correction            ... Starting D4
Dispersion correction           -0.068824202
FINAL SINGLE POINT ENERGY      -765.794112979307
Dispersion correction            ... Starting D4
                    ***********************HURRAY********************

CARTESIAN COORDINATES (ANGSTROEM)
---------------------------------
  C      2.557803    1.694072   -0.749351
  H      3.166961    1.543788    0.145073
  H      2.903293    2.580446   -1.284943
  H      2.697540    0.824835   -1.402170
  C      1.083811    1.892503   -0.448247
  N      0.513158    1.154141    0.555367
  C     -0.839286    1.536899    1.007605
  H     -1.008317    2.556953    0.660068
  H     -0.833419    1.542806    2.102810
  C     -1.925285    0.617615    0.496121
  C     -2.299765    0.656967   -0.855214
  C     -2.540747   -0.307298    1.346248
  C     -3.262522   -0.223516   -1.346203
  H     -1.819199    1.374482   -1.514183
  C     -3.506551   -1.191970    0.855796
  H     -2.261655   -0.336424    2.397359
  C     -3.866207   -1.153750   -0.492112
  H     -3.545179   -0.185843   -2.395227
  H     -3.974824   -1.907903    1.526401
  H     -4.615551   -1.840585   -0.876923
  C      1.223556    0.195545    1.404527
  H      1.814438    0.710773    2.169829
  H      0.460534   -0.392493    1.926422
  C      2.199786   -0.787581    0.738522
  N      1.767678   -1.549380   -0.298681
  O      3.347668   -0.863824    1.192658
  O      0.417029    2.701534   -1.104224
  C      0.402204   -1.574302   -0.808628
  H      0.281142   -0.912983   -1.675609
  H      0.168138   -2.598278   -1.117720
  H     -0.311203   -1.281374   -0.042655
  C      2.721735   -2.391912   -1.012211
  H      2.449121   -3.449184   -0.907157
  H      2.717453   -2.135590   -2.078768
  H      3.715661   -2.230169   -0.598580

 Multiplicity           Mult            ....    1
 Number of Electrons    NEL             ....  126
 Basis Dimension        Dim             ....  274

ORBITAL ENERGIES
----------------

  NO   OCC          E(Eh)            E(eV)
   0   2.0000     -19.107581      -519.9437
   1   2.0000     -19.107072      -519.9299
   2   2.0000     -14.360881      -390.7794
   3   2.0000     -14.360172      -390.7601
   4   2.0000     -10.283498      -279.8282
   5   2.0000     -10.282314      -279.7960
   6   2.0000     -10.221067      -278.1294
   7   2.0000     -10.209303      -277.8092
   8   2.0000     -10.200625      -277.5731
   9   2.0000     -10.197613      -277.4912
  10   2.0000     -10.187519      -277.2165
  11   2.0000     -10.180886      -277.0360
  12   2.0000     -10.180428      -277.0235
  13   2.0000     -10.180280      -277.0195
  14   2.0000     -10.179959      -277.0108
  15   2.0000     -10.176802      -276.9249
  16   2.0000     -10.170959      -276.7659
  17   2.0000      -1.032016       -28.0826
  18   2.0000      -1.026230       -27.9251
  19   2.0000      -0.935058       -25.4442
  20   2.0000      -0.926026       -25.1985
  21   2.0000      -0.850433       -23.1415
  22   2.0000      -0.772456       -21.0196
  23   2.0000      -0.742435       -20.2027
  24   2.0000      -0.739525       -20.1235
  25   2.0000      -0.730375       -19.8745
  26   2.0000      -0.711772       -19.3683
  27   2.0000      -0.682912       -18.5830
  28   2.0000      -0.670690       -18.2504
  29   2.0000      -0.600947       -16.3526
  30   2.0000      -0.586899       -15.9703
  31   2.0000      -0.560184       -15.2434
  32   2.0000      -0.537000       -14.6125
  33   2.0000      -0.511194       -13.9103
  34   2.0000      -0.494705       -13.4616
  35   2.0000      -0.488562       -13.2945
  36   2.0000      -0.479092       -13.0368
  37   2.0000      -0.463694       -12.6178
  38   2.0000      -0.456792       -12.4299
  39   2.0000      -0.453286       -12.3345
  40   2.0000      -0.445963       -12.1353
  41   2.0000      -0.440457       -11.9854
  42   2.0000      -0.414966       -11.2918
  43   2.0000      -0.414014       -11.2659
  44   2.0000      -0.409808       -11.1514
  45   2.0000      -0.402442       -10.9510
  46   2.0000      -0.399416       -10.8687
  47   2.0000      -0.396746       -10.7960
  48   2.0000      -0.394283       -10.7290
  49   2.0000      -0.389683       -10.6038
  50   2.0000      -0.378694       -10.3048
  51   2.0000      -0.377510       -10.2726
  52   2.0000      -0.355016        -9.6605
  53   2.0000      -0.353329        -9.6146
  54   2.0000      -0.351819        -9.5735
  55   2.0000      -0.337126        -9.1737
  56   2.0000      -0.334190        -9.0938
  57   2.0000      -0.257361        -7.0031
  58   2.0000      -0.252929        -6.8826
  59   2.0000      -0.249235        -6.7820
  60   2.0000      -0.241674        -6.5763
  61   2.0000      -0.238998        -6.5035
  62   2.0000      -0.235276        -6.4022
  63   0.0000      -0.004938        -0.1344
  64   0.0000       0.000486         0.0132
  65   0.0000       0.018015         0.4902
  66   0.0000       0.025084         0.6826
  67   0.0000       0.087729         2.3872

MULLIKEN ATOMIC CHARGES
-----------------------
   0 C :   -0.568739
   1 H :    0.188889
   2 H :    0.183309
   3 H :    0.200020
   4 C :    0.534878
   5 N :   -0.369202
   6 C :   -0.251861
   7 H :    0.186532
   8 H :    0.174822
   9 C :    0.148276
  10 C :   -0.180235
  11 C :   -0.199333
  12 C :   -0.148380
  13 H :    0.153713
  14 C :   -0.145462
  15 H :    0.149959
  16 C :   -0.146316
  17 H :    0.150427
  18 H :    0.150599
  19 H :    0.149976
  20 C :   -0.255763
  21 H :    0.189685
  22 H :    0.206522
  23 C :    0.522295
  24 N :   -0.358760
  25 O :   -0.538657
  26 O :   -0.532836
  27 C :   -0.336353
  28 H :    0.174943
  29 H :    0.174717
  30 H :    0.191049
  31 C :   -0.332398
  32 H :    0.172875
  33 H :    0.172714
  34 H :    0.188095
Sum of atomic charges:   -0.0000000

LOEWDIN ATOMIC CHARGES
----------------------
   0 C :   -0.397482
   1 H :    0.150338
   2 H :    0.152338
   3 H :    0.160347
   4 C :    0.115748
   5 N :   -0.076895
   6 C :   -0.148328
   7 H :    0.151833
   8 H :    0.138819
   9 C :   -0.036784
  10 C :   -0.132176
  11 C :   -0.143634
  12 C :   -0.135002
  13 H :    0.142637
  14 C :   -0.136180
  15 H :    0.139317
  16 C :   -0.136986
  17 H :    0.140208
  18 H :    0.140450
  19 H :    0.140071
  20 C :   -0.178838
  21 H :    0.147900
  22 H :    0.161743
  23 C :    0.095662
  24 N :   -0.068976
  25 O :   -0.333488
  26 O :   -0.333220
  27 C :   -0.279739
  28 H :    0.133795
  29 H :    0.139326
  30 H :    0.147600
  31 C :   -0.279086
  32 H :    0.134876
  33 H :    0.134818
  34 H :    0.148987

  Mayer bond orders larger than 0.100000
B(  0-C ,  1-H ) :   0.9155 B(  0-C ,  2-H ) :   0.9353 B(  0-C ,  3-H ) :   0.9188
B(  0-C ,  4-C ) :   0.9952 B(  4-C ,  5-N ) :   1.1569 B(  4-C , 26-O ) :   1.7568
B(  5-N ,  6-C ) :   0.9276 B(  5-N , 20-C ) :   0.9223 B(  6-C ,  7-H ) :   0.9065
B(  6-C ,  8-H ) :   0.9226 B(  6-C ,  9-C ) :   0.9669 B(  9-C , 10-C ) :   1.4267
B(  9-C , 11-C ) :   1.4333 B( 10-C , 12-C ) :   1.4439 B( 10-C , 13-H ) :   0.9088
B( 11-C , 14-C ) :   1.4227 B( 11-C , 15-H ) :   0.9193 B( 12-C , 16-C ) :   1.4329
B( 12-C , 17-H ) :   0.9267 B( 14-C , 16-C ) :   1.4609 B( 14-C , 18-H ) :   0.9261
B( 16-C , 19-H ) :   0.9272 B( 20-C , 21-H ) :   0.9130 B( 20-C , 22-H ) :   0.9052
B( 20-C , 23-C ) :   0.9439 B( 23-C , 24-N ) :   1.1997 B( 23-C , 25-O ) :   1.7472
B( 24-N , 25-O ) :   0.1009 B( 24-N , 27-C ) :   0.9453 B( 24-N , 31-C ) :   0.9447
B( 27-C , 28-H ) :   0.9291 B( 27-C , 29-H ) :   0.9349 B( 27-C , 30-H ) :   0.9172
B( 31-C , 32-H ) :   0.9366 B( 31-C , 33-H ) :   0.9365 B( 31-C , 34-H ) :   0.9243

Dispersion correction           -0.068824593
FINAL SINGLE POINT ENERGY      -765.794112836604

DIPOLE MOMENT
-------------
                                X             Y             Z
Electronic contribution:     -3.17057       4.60033       3.15317
Nuclear contribution   :      2.13029      -6.11002      -3.04463
                        -----------------------------------------
Total Dipole Moment    :     -1.04029      -1.50969       0.10854
                        -----------------------------------------
Magnitude (a.u.)       :      1.83661
Magnitude (Debye)      :      4.66830

Dispersion correction in the Hessian             ... Starting D4

VIBRATIONAL FREQUENCIES
-----------------------

Scaling factor for frequencies =  1.000000000  (already applied!)

   0:         0.00 cm**-1
   1:         0.00 cm**-1
   2:         0.00 cm**-1
   3:         0.00 cm**-1
   4:         0.00 cm**-1
   5:         0.00 cm**-1
   6:        31.28 cm**-1
   7:        47.83 cm**-1
   8:        51.04 cm**-1
   9:        71.91 cm**-1
  10:        76.15 cm**-1
  11:        94.50 cm**-1
  12:        98.62 cm**-1
  13:       123.21 cm**-1
  14:       156.34 cm**-1
  15:       184.49 cm**-1
  16:       190.42 cm**-1
  17:       213.11 cm**-1
  18:       236.08 cm**-1
  19:       247.31 cm**-1
  20:       290.57 cm**-1
  21:       321.48 cm**-1
  22:       327.36 cm**-1
  23:       408.09 cm**-1
  24:       409.40 cm**-1
  25:       418.81 cm**-1
  26:       451.52 cm**-1
  27:       464.47 cm**-1
  28:       521.07 cm**-1
  29:       575.26 cm**-1
  30:       588.35 cm**-1
  31:       611.34 cm**-1
  32:       623.90 cm**-1
  33:       634.36 cm**-1
  34:       692.02 cm**-1
  35:       719.84 cm**-1
  36:       753.72 cm**-1
  37:       775.13 cm**-1
  38:       806.99 cm**-1
  39:       834.33 cm**-1
  40:       870.66 cm**-1
  41:       931.70 cm**-1
  42:       953.50 cm**-1
  43:       977.70 cm**-1
  44:       983.20 cm**-1
  45:      1006.42 cm**-1
  46:      1008.14 cm**-1
  47:      1016.40 cm**-1
  48:      1017.85 cm**-1
  49:      1055.60 cm**-1
  50:      1062.72 cm**-1
  51:      1090.64 cm**-1
  52:      1091.22 cm**-1
  53:      1120.70 cm**-1
  54:      1135.65 cm**-1
  55:      1178.52 cm**-1
  56:      1183.37 cm**-1
  57:      1191.16 cm**-1
  58:      1197.01 cm**-1
  59:      1204.96 cm**-1
  60:      1237.99 cm**-1
  61:      1278.99 cm**-1
  62:      1292.33 cm**-1
  63:      1312.05 cm**-1
  64:      1349.92 cm**-1
  65:      1363.45 cm**-1
  66:      1377.47 cm**-1
  67:      1400.50 cm**-1
  68:      1415.26 cm**-1
  69:      1441.54 cm**-1
  70:      1457.03 cm**-1
  71:      1466.79 cm**-1
  72:      1486.27 cm**-1
  73:      1493.92 cm**-1
  74:      1499.31 cm**-1
  75:      1501.62 cm**-1
  76:      1505.59 cm**-1
  77:      1508.71 cm**-1
  78:      1516.65 cm**-1
  79:      1517.64 cm**-1
  80:      1531.60 cm**-1
  81:      1542.66 cm**-1
  82:      1554.64 cm**-1
  83:      1641.82 cm**-1
  84:      1661.28 cm**-1
  85:      1709.75 cm**-1
  86:      1717.62 cm**-1
  87:      3043.80 cm**-1
  88:      3051.47 cm**-1
  89:      3063.51 cm**-1
  90:      3069.97 cm**-1
  91:      3075.74 cm**-1
  92:      3096.97 cm**-1
  93:      3108.15 cm**-1
  94:      3110.24 cm**-1
  95:      3140.67 cm**-1
  96:      3150.00 cm**-1
  97:      3169.39 cm**-1
  98:      3180.35 cm**-1
  99:      3187.87 cm**-1
 100:      3195.67 cm**-1
 101:      3197.12 cm**-1
 102:      3207.22 cm**-1
 103:      3211.19 cm**-1
 104:      3214.00 cm**-1

IR SPECTRUM
-----------

 Mode   freq       eps      Int      T**2         TX        TY        TZ
       cm**-1   L/(mol*cm) km/mol    a.u.
----------------------------------------------------------------------------
  6:     31.28   0.000501    2.53  0.004995  ( 0.014650 -0.031045  0.061778)
  7:     47.83   0.000328    1.66  0.002138  (-0.032773 -0.025951  0.019767)
  8:     51.04   0.000073    0.37  0.000443  ( 0.016510  0.012466 -0.003913)
  9:     71.91   0.000390    1.97  0.001693  ( 0.027840  0.002471 -0.030191)
 10:     76.15   0.001401    7.08  0.005741  (-0.005530 -0.067662 -0.033651)
 11:     94.50   0.001375    6.95  0.004540  (-0.007532 -0.057011 -0.035111)
 12:     98.62   0.000362    1.83  0.001145  ( 0.015171  0.027783 -0.011938)
 13:    123.21   0.000434    2.19  0.001100  ( 0.021285 -0.009970  0.023392)
 14:    156.34   0.001158    5.85  0.002312  (-0.026258 -0.040275 -0.000513)
 15:    184.49   0.000306    1.54  0.000517  (-0.008414 -0.016605 -0.013057)
 16:    190.42   0.001171    5.92  0.001919  (-0.037899 -0.012679  0.017930)
 17:    213.11   0.000025    0.13  0.000037  (-0.003213  0.002984 -0.004160)
 18:    236.08   0.000590    2.98  0.000781  ( 0.018257  0.008404 -0.019405)
 19:    247.31   0.001896    9.58  0.002393  ( 0.007317  0.044795 -0.018240)
 20:    290.57   0.000598    3.02  0.000642  (-0.011796 -0.008278  0.020851)
 21:    321.48   0.001996   10.09  0.001938  ( 0.017434  0.029880  0.027223)
 22:    327.36   0.000438    2.21  0.000418  (-0.000074 -0.020180 -0.003249)
 23:    408.09   0.000994    5.02  0.000760  ( 0.011032  0.021283 -0.013623)
 24:    409.40   0.001477    7.46  0.001126  ( 0.005511 -0.021148 -0.025463)
 25:    418.81   0.000065    0.33  0.000048  ( 0.006220  0.002962  0.000834)
 26:    451.52   0.001028    5.19  0.000710  (-0.022042  0.005378  0.013986)
 27:    464.47   0.000968    4.89  0.000650  ( 0.017545 -0.007353 -0.016978)
 28:    521.07   0.005389   27.24  0.003228  ( 0.049074 -0.003154 -0.028451)
 29:    575.26   0.004988   25.21  0.002706  ( 0.012866 -0.027954  0.041937)
 30:    588.35   0.001750    8.84  0.000928  (-0.027516  0.013069  0.000279)
 31:    611.34   0.000273    1.38  0.000139  (-0.010731 -0.002136  0.004403)
 32:    623.90   0.010221   51.65  0.005112  (-0.012160 -0.066379 -0.023630)
 33:    634.36   0.000078    0.40  0.000039  ( 0.001338 -0.001485 -0.005881)
 34:    692.02   0.001448    7.32  0.000653  ( 0.025202  0.000150  0.004229)
 35:    719.84   0.011436   57.79  0.004957  (-0.051447  0.045834  0.014491)
 36:    753.72   0.002528   12.78  0.001047  (-0.023435 -0.021208 -0.006906)
 37:    775.13   0.005449   27.53  0.002194  (-0.014961  0.042347  0.013283)
 38:    806.99   0.002259   11.42  0.000874  (-0.026747 -0.012239 -0.002907)
 39:    834.33   0.003130   15.82  0.001171  (-0.027752 -0.017167 -0.010288)
 40:    870.66   0.000006    0.03  0.000002  (-0.000288 -0.001435 -0.000020)
 41:    931.70   0.000660    3.33  0.000221  (-0.013137 -0.001870  0.006701)
 42:    953.50   0.002284   11.54  0.000748  (-0.020924  0.014778 -0.009557)
 43:    977.70   0.000945    4.77  0.000302  (-0.012332  0.009386  0.007834)
 44:    983.20   0.000041    0.21  0.000013  (-0.002648 -0.000295 -0.002416)
 45:   1006.42   0.008641   43.67  0.002679  (-0.014298 -0.035358 -0.034995)
 46:   1008.14   0.000147    0.74  0.000045  ( 0.006655 -0.000764  0.000736)
 47:   1016.40   0.000122    0.62  0.000038  ( 0.005463  0.002483  0.001235)
 48:   1017.85   0.006497   32.83  0.001992  ( 0.004864  0.027273 -0.034992)
 49:   1055.60   0.001290    6.52  0.000381  ( 0.015168  0.011925  0.002992)
 50:   1062.72   0.002646   13.37  0.000777  ( 0.001186  0.022794  0.016004)
 51:   1090.64   0.001673    8.45  0.000479  (-0.020139 -0.001399  0.008428)
 52:   1091.22   0.002443   12.35  0.000699  (-0.008146  0.015372 -0.019899)
 53:   1120.70   0.002015   10.19  0.000561  ( 0.010635 -0.012342  0.017199)
 54:   1135.65   0.000592    2.99  0.000163  (-0.010905 -0.001243 -0.006495)
 55:   1178.52   0.002017   10.20  0.000534  (-0.013366 -0.015551 -0.010664)
 56:   1183.37   0.000036    0.18  0.000009  (-0.000465  0.001605  0.002565)
 57:   1191.16   0.010102   51.05  0.002647  ( 0.045626 -0.019303 -0.013871)
 58:   1197.01   0.017602   88.95  0.004589  ( 0.031785  0.037368  0.046713)
 59:   1204.96   0.000021    0.11  0.000005  ( 0.000209 -0.000060  0.002321)
 60:   1237.99   0.001565    7.91  0.000395  (-0.017527 -0.002115 -0.009104)
 61:   1278.99   0.027281  137.87  0.006656  (-0.061142 -0.039688  0.036645)
 62:   1292.33   0.014553   73.55  0.003514  ( 0.037369 -0.033895 -0.031128)
 63:   1312.05   0.013761   69.54  0.003273  ( 0.016456  0.034305 -0.042724)
 64:   1349.92   0.017996   90.95  0.004160  (-0.006769 -0.033742  0.054551)
 65:   1363.45   0.001407    7.11  0.000322  ( 0.008419 -0.007299  0.014070)
 66:   1377.47   0.001815    9.17  0.000411  ( 0.004863 -0.016678  0.010456)
 67:   1400.50   0.010306   52.08  0.002296  (-0.030264 -0.034301  0.014283)
 68:   1415.26   0.003357   16.97  0.000740  ( 0.022575 -0.004250 -0.014580)
 69:   1441.54   0.015746   79.57  0.003409  (-0.023030 -0.036891 -0.038953)
 70:   1457.03   0.019229   97.17  0.004118  ( 0.020818 -0.015754 -0.058624)
 71:   1466.79   0.020818  105.20  0.004429  (-0.015547 -0.060443  0.023107)
 72:   1486.27   0.003828   19.34  0.000804  (-0.019365 -0.017327  0.011334)
 73:   1493.92   0.001410    7.13  0.000295  (-0.015203  0.004901 -0.006282)
 74:   1499.31   0.002405   12.15  0.000500  ( 0.014653 -0.005880 -0.015849)
 75:   1501.62   0.002078   10.50  0.000432  (-0.009316  0.012685 -0.013567)
 76:   1505.59   0.004133   20.89  0.000857  ( 0.015663 -0.017116 -0.017843)
 77:   1508.71   0.005349   27.03  0.001106  ( 0.025849  0.020234  0.005374)
 78:   1516.65   0.004773   24.12  0.000982  ( 0.023018 -0.021196  0.001716)
 79:   1517.64   0.004983   25.18  0.001025  (-0.021725 -0.014513  0.018492)
 80:   1531.60   0.013416   67.80  0.002733  ( 0.030848  0.014683 -0.039576)
 81:   1542.66   0.004320   21.83  0.000874  ( 0.024782  0.015837  0.002992)
 82:   1554.64   0.014971   75.66  0.003005  (-0.011206  0.038840  0.037028)
 83:   1641.82   0.000553    2.80  0.000105  ( 0.002112 -0.007230  0.006958)
 84:   1661.28   0.000559    2.82  0.000105  (-0.009748 -0.003009 -0.000957)
 85:   1709.75   0.109085  551.27  0.019910  ( 0.057895 -0.088228  0.093670)
 86:   1717.62   0.098245  496.49  0.017850  (-0.105452 -0.046788 -0.067381)
 87:   3043.80   0.008372   42.31  0.000858  (-0.015549  0.021290  0.012777)
 88:   3051.47   0.012725   64.31  0.001301  (-0.015899 -0.010301 -0.030699)
 89:   3063.51   0.003448   17.42  0.000351  ( 0.011145 -0.007016  0.013334)
 90:   3069.97   0.000554    2.80  0.000056  (-0.006538 -0.000490  0.003646)
 91:   3075.74   0.011171   56.45  0.001133  ( 0.000113 -0.010489 -0.031991)
 92:   3096.97   0.009570   48.36  0.000964  ( 0.004840  0.025352 -0.017267)
 93:   3108.15   0.002835   14.33  0.000285  ( 0.009833  0.011928  0.006758)
 94:   3110.24   0.004506   22.77  0.000452  ( 0.001079 -0.020996  0.003186)
 95:   3140.67   0.002039   10.30  0.000203  ( 0.007887  0.010586  0.005321)
 96:   3150.00   0.001068    5.40  0.000106  ( 0.008624 -0.005213  0.002064)
 97:   3169.39   0.001987   10.04  0.000196  ( 0.000152 -0.009832  0.009945)
 98:   3180.35   0.001817    9.18  0.000178  (-0.006862 -0.004035 -0.010720)
 99:   3187.87   0.000429    2.17  0.000042  ( 0.003913  0.004699  0.002143)
100:   3195.67   0.000816    4.12  0.000080  ( 0.008840 -0.001217  0.000139)
101:   3197.12   0.006656   33.63  0.000650  (-0.004932  0.001766 -0.024944)
102:   3207.22   0.006057   30.61  0.000589  (-0.014163 -0.017325  0.009411)
103:   3211.19   0.001171    5.92  0.000114  ( 0.001183 -0.000065  0.010602)
104:   3214.00   0.002746   13.88  0.000267  ( 0.011442  0.004690  0.010664)

--------------------------
THERMOCHEMISTRY AT 298.15K
--------------------------

Temperature         ... 298.15 K
Pressure            ... 1.00 atm
Total Mass          ... 234.30 AMU

Throughout the following assumptions are being made:
  (1) The electronic state is orbitally nondegenerate
  (2) There are no thermally accessible electronically excited states
  (3) Hindered rotations indicated by low frequency modes are not
      treated as such but are treated as vibrations and this may
      cause some error
  (4) All equations used are the standard statistical mechanics
      equations for an ideal gas
  (5) All vibrations are strictly harmonic

freq.      31.28  E(vib)   ...       0.55
freq.      47.83  E(vib)   ...       0.53
freq.      51.04  E(vib)   ...       0.52
freq.      71.91  E(vib)   ...       0.50
freq.      76.15  E(vib)   ...       0.49
freq.      94.50  E(vib)   ...       0.47
freq.      98.62  E(vib)   ...       0.46
freq.     123.21  E(vib)   ...       0.43
freq.     156.34  E(vib)   ...       0.40
freq.     184.49  E(vib)   ...       0.37
freq.     190.42  E(vib)   ...       0.36
freq.     213.11  E(vib)   ...       0.34
freq.     236.08  E(vib)   ...       0.32
freq.     247.31  E(vib)   ...       0.31
freq.     290.57  E(vib)   ...       0.27
freq.     321.48  E(vib)   ...       0.25
freq.     327.36  E(vib)   ...       0.24
freq.     408.09  E(vib)   ...       0.19
freq.     409.40  E(vib)   ...       0.19
freq.     418.81  E(vib)   ...       0.18
freq.     451.52  E(vib)   ...       0.16
freq.     464.47  E(vib)   ...       0.16
freq.     521.07  E(vib)   ...       0.13
freq.     575.26  E(vib)   ...       0.11
freq.     588.35  E(vib)   ...       0.10
freq.     611.34  E(vib)   ...       0.10
freq.     623.90  E(vib)   ...       0.09
freq.     634.36  E(vib)   ...       0.09
freq.     692.02  E(vib)   ...       0.07
freq.     719.84  E(vib)   ...       0.07
freq.     753.72  E(vib)   ...       0.06
freq.     775.13  E(vib)   ...       0.05
freq.     806.99  E(vib)   ...       0.05
freq.     834.33  E(vib)   ...       0.04
freq.     870.66  E(vib)   ...       0.04
freq.     931.70  E(vib)   ...       0.03
freq.     953.50  E(vib)   ...       0.03
freq.     977.70  E(vib)   ...       0.03
freq.     983.20  E(vib)   ...       0.02
freq.    1006.42  E(vib)   ...       0.02
freq.    1008.14  E(vib)   ...       0.02
freq.    1016.40  E(vib)   ...       0.02
freq.    1017.85  E(vib)   ...       0.02
freq.    1055.60  E(vib)   ...       0.02
freq.    1062.72  E(vib)   ...       0.02
freq.    1090.64  E(vib)   ...       0.02
freq.    1091.22  E(vib)   ...       0.02
freq.    1120.70  E(vib)   ...       0.01
freq.    1135.65  E(vib)   ...       0.01
freq.    1178.52  E(vib)   ...       0.01
freq.    1183.37  E(vib)   ...       0.01
freq.    1191.16  E(vib)   ...       0.01
freq.    1197.01  E(vib)   ...       0.01
freq.    1204.96  E(vib)   ...       0.01
freq.    1237.99  E(vib)   ...       0.01
freq.    1278.99  E(vib)   ...       0.01
freq.    1292.33  E(vib)   ...       0.01
freq.    1312.05  E(vib)   ...       0.01
freq.    1349.92  E(vib)   ...       0.01
freq.    1363.45  E(vib)   ...       0.01
freq.    1377.47  E(vib)   ...       0.01
freq.    1400.50  E(vib)   ...       0.00
freq.    1415.26  E(vib)   ...       0.00
freq.    1441.54  E(vib)   ...       0.00
freq.    1457.03  E(vib)   ...       0.00
freq.    1466.79  E(vib)   ...       0.00
freq.    1486.27  E(vib)   ...       0.00
freq.    1493.92  E(vib)   ...       0.00
freq.    1499.31  E(vib)   ...       0.00
freq.    1501.62  E(vib)   ...       0.00
freq.    1505.59  E(vib)   ...       0.00
freq.    1508.71  E(vib)   ...       0.00
freq.    1516.65  E(vib)   ...       0.00
freq.    1517.64  E(vib)   ...       0.00
freq.    1531.60  E(vib)   ...       0.00
freq.    1542.66  E(vib)   ...       0.00
freq.    1554.64  E(vib)   ...       0.00
freq.    1641.82  E(vib)   ...       0.00
freq.    1661.28  E(vib)   ...       0.00
freq.    1709.75  E(vib)   ...       0.00
freq.    1717.62  E(vib)   ...       0.00
freq.    3043.80  E(vib)   ...       0.00
freq.    3051.47  E(vib)   ...       0.00
freq.    3063.51  E(vib)   ...       0.00
freq.    3069.97  E(vib)   ...       0.00
freq.    3075.74  E(vib)   ...       0.00
freq.    3096.97  E(vib)   ...       0.00
freq.    3108.15  E(vib)   ...       0.00
freq.    3110.24  E(vib)   ...       0.00
freq.    3140.67  E(vib)   ...       0.00
freq.    3150.00  E(vib)   ...       0.00
freq.    3169.39  E(vib)   ...       0.00
freq.    3180.35  E(vib)   ...       0.00
freq.    3187.87  E(vib)   ...       0.00
freq.    3195.67  E(vib)   ...       0.00
freq.    3197.12  E(vib)   ...       0.00
freq.    3207.22  E(vib)   ...       0.00
freq.    3211.19  E(vib)   ...       0.00
freq.    3214.00  E(vib)   ...       0.00

------------
INNER ENERGY
------------

The inner energy is: U= E(el) + E(ZPE) + E(vib) + E(rot) + E(trans)
    E(el)   - is the total energy from the electronic structure calculation
              = E(kin-el) + E(nuc-el) + E(el-el) + E(nuc-nuc)
    E(ZPE)  - the the zero temperature vibrational energy from the frequency calculation
    E(vib)  - the the finite temperature correction to E(ZPE) due to population
              of excited vibrational states
    E(rot)  - is the rotational thermal energy
    E(trans)- is the translational thermal energy

Summary of contributions to the inner energy U:
Electronic energy                ...   -765.79411284 Eh
Zero point energy                ...      0.29749044 Eh     186.68 kcal/mol
Thermal vibrational correction   ...      0.01456280 Eh       9.14 kcal/mol
Thermal rotational correction    ...      0.00141627 Eh       0.89 kcal/mol
Thermal translational correction ...      0.00141627 Eh       0.89 kcal/mol
-----------------------------------------------------------------------
Total thermal energy                   -765.47922705 Eh

Summary of corrections to the electronic energy:
(perhaps to be used in another calculation)
Total thermal correction                  0.01739535 Eh      10.92 kcal/mol
Non-thermal (ZPE) correction              0.29749044 Eh     186.68 kcal/mol
-----------------------------------------------------------------------
Total correction                          0.31488579 Eh     197.59 kcal/mol

--------
ENTHALPY
--------

The enthalpy is H = U + kB*T
                kB is Boltzmann's constant
Total free energy                 ...   -765.47922705 Eh
Thermal Enthalpy correction       ...      0.00094421 Eh       0.59 kcal/mol
-----------------------------------------------------------------------
Total Enthalpy                    ...   -765.47828284 Eh

Note: Only C1 symmetry has been detected, increase convergence thresholds

Rotational constants in cm-1:     0.023186     0.011350     0.009612

                             ****ORCA TERMINATED NORMALLY****
TOTAL RUN TIME: 0 days 0 hours 33 minutes 26 seconds 693 msec
