                         Program Version 5.0.4 -  RELEASE  -
|  1> ! OPT FREQ B3LYP 6-31+G(d) D4 AUTOAUX
|  2> ! CPCM
|  3>
|  4> %cpcm
|  5> epsilon 9.8629
|  6> refrac  1.4295
|  7> end
|  8>
|  9> %PAL NPROCS 4 END
| 10>
| 11> %maxcore 3375
| 12>
| 13> *xyzfile 1 1 /users/fjb15167/WWenergy/structures/Nke.xyz
| 14>
| 15>                          ****END OF INPUT****
 Total Charge           Charge          ....    1
 Multiplicity           Mult            ....    1
 Number of Electrons    NEL             ....  102
Dispersion correction           -0.048804175
FINAL SINGLE POINT ENERGY      -629.965080021578
Dispersion correction            ... Starting D4
Dispersion correction           -0.047261490
FINAL SINGLE POINT ENERGY      -629.966370824585
Dispersion correction            ... Starting D4
Dispersion correction           -0.047915209
FINAL SINGLE POINT ENERGY      -629.973039804831
Dispersion correction            ... Starting D4
FINAL SINGLE POINT ENERGY      -629.974534501737
FINAL SINGLE POINT ENERGY      -629.975001244825
FINAL SINGLE POINT ENERGY      -629.975143654186
FINAL SINGLE POINT ENERGY      -629.975313167437
FINAL SINGLE POINT ENERGY      -629.975476685972
FINAL SINGLE POINT ENERGY      -629.975577713905
FINAL SINGLE POINT ENERGY      -629.975667268107
FINAL SINGLE POINT ENERGY      -629.975724596198
FINAL SINGLE POINT ENERGY      -629.975778408530
FINAL SINGLE POINT ENERGY      -629.975821951225
FINAL SINGLE POINT ENERGY      -629.975855638427
FINAL SINGLE POINT ENERGY      -629.975876515269
FINAL SINGLE POINT ENERGY      -629.975901467981
FINAL SINGLE POINT ENERGY      -629.975919326791
Dispersion correction           -0.047781401
FINAL SINGLE POINT ENERGY      -629.975929390812
Dispersion correction            ... Starting D4
Dispersion correction           -0.047784454
FINAL SINGLE POINT ENERGY      -629.975933797077
Dispersion correction            ... Starting D4
                    ***********************HURRAY********************

CARTESIAN COORDINATES (ANGSTROEM)
---------------------------------
  C      0.650670    3.227589   -1.254022
  H      1.600140    2.773481   -1.559149
  H      0.870574    3.999296   -0.507215
  H      0.190826    3.699217   -2.124189
  C     -0.321644    2.197668   -0.715092
  O     -1.428570    2.021810   -1.243496
  N      0.032959    1.455417    0.381943
  C     -0.973736    0.537520    0.895551
  H     -0.673073    0.209131    1.896253
  H     -1.922162    1.069605    0.991577
  C      1.299761    1.580555    1.100346
  H      1.874030    2.398545    0.666529
  H      1.107677    1.838003    2.149397
  C      2.136124    0.298466    1.082864
  H      3.122471    0.490877    1.510730
  H      1.661269   -0.510609    1.642925
  C     -1.144223   -0.695241   -0.005450
  N     -2.275517   -1.404092    0.133210
  O     -0.242886   -1.020990   -0.812329
  C     -2.543408   -2.556737   -0.728890
  H     -2.656184   -3.458860   -0.117053
  H     -3.472252   -2.387396   -1.285896
  H     -1.718566   -2.688033   -1.427178
  C     -3.343604   -1.039136    1.070639
  H     -2.935284   -0.686595    2.019578
  H     -3.999596   -0.270237    0.643949
  H     -3.937082   -1.933819    1.271743
  N      2.309373   -0.204711   -0.317586
  H      2.727441    0.498272   -0.934746
  H      2.914692   -1.031127   -0.343358
  H      1.360778   -0.478867   -0.688582

 Multiplicity           Mult            ....    1
 Number of Electrons    NEL             ....  102
 Basis Dimension        Dim             ....  270

ORBITAL ENERGIES
----------------

  NO   OCC          E(Eh)            E(eV)
   0   2.0000     -19.150000      -521.0980
   1   2.0000     -19.140715      -520.8453
   2   2.0000     -14.443160      -393.0184
   3   2.0000     -14.392382      -391.6366
   4   2.0000     -14.391578      -391.6147
   5   2.0000     -10.315612      -280.7021
   6   2.0000     -10.311161      -280.5809
   7   2.0000     -10.260156      -279.1930
   8   2.0000     -10.250932      -278.9420
   9   2.0000     -10.244795      -278.7750
  10   2.0000     -10.224493      -278.2226
  11   2.0000     -10.217183      -278.0237
  12   2.0000     -10.194369      -277.4029
  13   2.0000      -1.069736       -29.1090
  14   2.0000      -1.056411       -28.7464
  15   2.0000      -1.005784       -27.3688
  16   2.0000      -0.960568       -26.1384
  17   2.0000      -0.959787       -26.1171
  18   2.0000      -0.797658       -21.7054
  19   2.0000      -0.781086       -21.2544
  20   2.0000      -0.745025       -20.2732
  21   2.0000      -0.732424       -19.9303
  22   2.0000      -0.700600       -19.0643
  23   2.0000      -0.676024       -18.3956
  24   2.0000      -0.602618       -16.3981
  25   2.0000      -0.588680       -16.0188
  26   2.0000      -0.577063       -15.7027
  27   2.0000      -0.556472       -15.1424
  28   2.0000      -0.533631       -14.5208
  29   2.0000      -0.523637       -14.2489
  30   2.0000      -0.518066       -14.0973
  31   2.0000      -0.495227       -13.4758
  32   2.0000      -0.492038       -13.3890
  33   2.0000      -0.475302       -12.9336
  34   2.0000      -0.470790       -12.8108
  35   2.0000      -0.448804       -12.2126
  36   2.0000      -0.439679       -11.9643
  37   2.0000      -0.435127       -11.8404
  38   2.0000      -0.424499       -11.5512
  39   2.0000      -0.420642       -11.4462
  40   2.0000      -0.418657       -11.3922
  41   2.0000      -0.417056       -11.3487
  42   2.0000      -0.412362       -11.2209
  43   2.0000      -0.397740       -10.8231
  44   2.0000      -0.392719       -10.6864
  45   2.0000      -0.388298       -10.5661
  46   2.0000      -0.369117       -10.0442
  47   2.0000      -0.298306        -8.1173
  48   2.0000      -0.281637        -7.6637
  49   2.0000      -0.275451        -7.4954
  50   2.0000      -0.270225        -7.3532
  51   0.0000      -0.019023        -0.5176
  52   0.0000      -0.009583        -0.2608
  53   0.0000      -0.003556        -0.0968
  54   0.0000       0.001835         0.0499
  55   0.0000       0.008108         0.2206

MULLIKEN ATOMIC CHARGES
-----------------------
   0 C :   -1.002772
   1 H :    0.253657
   2 H :    0.261025
   3 H :    0.251177
   4 C :    0.871471
   5 O :   -0.578294
   6 N :   -0.098146
   7 C :   -1.001599
   8 H :    0.283840
   9 H :    0.275453
  10 C :   -0.463517
  11 H :    0.254804
  12 H :    0.259417
  13 C :   -0.032913
  14 H :    0.265025
  15 H :    0.271421
  16 C :    0.723746
  17 N :   -0.065051
  18 O :   -0.629693
  19 C :   -0.598548
  20 H :    0.236372
  21 H :    0.238048
  22 H :    0.250855
  23 C :   -0.508146
  24 H :    0.238196
  25 H :    0.247759
  26 H :    0.236742
  27 N :   -1.077595
  28 H :    0.523052
  29 H :    0.528153
  30 H :    0.586061
Sum of atomic charges:    1.0000000

LOEWDIN ATOMIC CHARGES
----------------------
   0 C :   -0.465752
   1 H :    0.223324
   2 H :    0.224919
   3 H :    0.221759
   4 C :    0.121759
   5 O :   -0.428585
   6 N :   -0.312038
   7 C :   -0.221696
   8 H :    0.255668
   9 H :    0.255487
  10 C :   -0.243393
  11 H :    0.241153
  12 H :    0.235304
  13 C :   -0.243168
  14 H :    0.231164
  15 H :    0.237291
  16 C :    0.124122
  17 N :   -0.304282
  18 O :   -0.477281
  19 C :   -0.345503
  20 H :    0.211613
  21 H :    0.214430
  22 H :    0.233147
  23 C :   -0.355959
  24 H :    0.219544
  25 H :    0.218567
  26 H :    0.219692
  27 N :   -0.410004
  28 H :    0.364988
  29 H :    0.362172
  30 H :    0.391557

  Mayer bond orders larger than 0.100000
B(  0-C ,  1-H ) :   0.9512 B(  0-C ,  2-H ) :   0.9477 B(  0-C ,  3-H ) :   0.9975
B(  0-C ,  4-C ) :   0.4014 B(  4-C ,  5-O ) :   1.7272 B(  4-C ,  6-N ) :   1.1414
B(  5-O ,  7-C ) :  -0.1141 B(  6-N ,  7-C ) :   0.7989 B(  6-N , 10-C ) :   0.7824
B(  7-C ,  8-H ) :   0.9312 B(  7-C ,  9-H ) :   1.0661 B(  7-C , 10-C ) :   0.1756
B(  7-C , 13-C ) :  -0.1046 B(  7-C , 16-C ) :   0.5611 B(  7-C , 17-N ) :  -0.2526
B(  7-C , 18-O ) :  -0.1573 B(  9-H , 16-C ) :  -0.1141 B( 10-C , 11-H ) :   0.9632
B( 10-C , 12-H ) :   0.9513 B( 10-C , 13-C ) :   0.6763 B( 13-C , 14-H ) :   0.9356
B( 13-C , 15-H ) :   0.9603 B( 13-C , 27-N ) :   0.5697 B( 16-C , 17-N ) :   1.4473
B( 16-C , 18-O ) :   1.7313 B( 17-N , 19-C ) :   0.8206 B( 17-N , 23-C ) :   0.7892
B( 18-O , 30-H ) :   0.1840 B( 19-C , 20-H ) :   0.9286 B( 19-C , 21-H ) :   0.9355
B( 19-C , 22-H ) :   0.9476 B( 23-C , 24-H ) :   0.9252 B( 23-C , 25-H ) :   0.9239
B( 23-C , 26-H ) :   0.9323 B( 27-N , 28-H ) :   0.6855 B( 27-N , 29-H ) :   0.6852
B( 27-N , 30-H ) :   0.4638

Dispersion correction           -0.047786984
FINAL SINGLE POINT ENERGY      -629.975934878372

DIPOLE MOMENT
-------------
                                X             Y             Z
Electronic contribution:      0.53674       1.19030      -2.18171
Nuclear contribution   :      3.58586      -2.07678       4.34317
                        -----------------------------------------
Total Dipole Moment    :      4.12260      -0.88648       2.16146
                        -----------------------------------------
Magnitude (a.u.)       :      4.73852
Magnitude (Debye)      :     12.04436

Dispersion correction in the Hessian             ... Starting D4

VIBRATIONAL FREQUENCIES
-----------------------

Scaling factor for frequencies =  1.000000000  (already applied!)

   0:         0.00 cm**-1
   1:         0.00 cm**-1
   2:         0.00 cm**-1
   3:         0.00 cm**-1
   4:         0.00 cm**-1
   5:         0.00 cm**-1
   6:        34.34 cm**-1
   7:        59.22 cm**-1
   8:        83.84 cm**-1
   9:        96.25 cm**-1
  10:        99.78 cm**-1
  11:       118.05 cm**-1
  12:       146.69 cm**-1
  13:       158.22 cm**-1
  14:       178.73 cm**-1
  15:       200.12 cm**-1
  16:       235.69 cm**-1
  17:       249.97 cm**-1
  18:       289.21 cm**-1
  19:       318.05 cm**-1
  20:       343.08 cm**-1
  21:       384.96 cm**-1
  22:       412.41 cm**-1
  23:       420.12 cm**-1
  24:       452.13 cm**-1
  25:       491.74 cm**-1
  26:       532.17 cm**-1
  27:       570.23 cm**-1
  28:       606.80 cm**-1
  29:       613.44 cm**-1
  30:       640.73 cm**-1
  31:       760.84 cm**-1
  32:       824.89 cm**-1
  33:       854.88 cm**-1
  34:       896.43 cm**-1
  35:       953.47 cm**-1
  36:       969.77 cm**-1
  37:       989.83 cm**-1
  38:      1015.11 cm**-1
  39:      1049.85 cm**-1
  40:      1064.94 cm**-1
  41:      1082.55 cm**-1
  42:      1091.16 cm**-1
  43:      1125.26 cm**-1
  44:      1143.77 cm**-1
  45:      1171.46 cm**-1
  46:      1184.16 cm**-1
  47:      1188.90 cm**-1
  48:      1236.16 cm**-1
  49:      1278.47 cm**-1
  50:      1308.47 cm**-1
  51:      1348.47 cm**-1
  52:      1362.59 cm**-1
  53:      1385.52 cm**-1
  54:      1412.14 cm**-1
  55:      1414.24 cm**-1
  56:      1429.65 cm**-1
  57:      1445.17 cm**-1
  58:      1455.96 cm**-1
  59:      1464.48 cm**-1
  60:      1478.43 cm**-1
  61:      1482.10 cm**-1
  62:      1493.98 cm**-1
  63:      1498.88 cm**-1
  64:      1500.76 cm**-1
  65:      1505.85 cm**-1
  66:      1511.86 cm**-1
  67:      1514.84 cm**-1
  68:      1518.20 cm**-1
  69:      1544.25 cm**-1
  70:      1563.21 cm**-1
  71:      1653.10 cm**-1
  72:      1676.83 cm**-1
  73:      1696.56 cm**-1
  74:      1699.34 cm**-1
  75:      2943.99 cm**-1
  76:      3052.23 cm**-1
  77:      3057.11 cm**-1
  78:      3063.21 cm**-1
  79:      3070.03 cm**-1
  80:      3090.38 cm**-1
  81:      3111.06 cm**-1
  82:      3115.03 cm**-1
  83:      3125.12 cm**-1
  84:      3134.37 cm**-1
  85:      3144.53 cm**-1
  86:      3163.83 cm**-1
  87:      3165.94 cm**-1
  88:      3167.56 cm**-1
  89:      3180.19 cm**-1
  90:      3195.12 cm**-1
  91:      3462.23 cm**-1
  92:      3521.95 cm**-1

IR SPECTRUM
-----------

 Mode   freq       eps      Int      T**2         TX        TY        TZ
       cm**-1   L/(mol*cm) km/mol    a.u.
----------------------------------------------------------------------------
  6:     34.34   0.002256   11.40  0.020499  ( 0.015135  0.114161 -0.085070)
  7:     59.22   0.000478    2.42  0.002520  (-0.027273  0.018518 -0.037853)
  8:     83.84   0.002371   11.98  0.008825  (-0.051752  0.076895 -0.015280)
  9:     96.25   0.001059    5.35  0.003433  ( 0.002157  0.037260 -0.045171)
 10:     99.78   0.002534   12.80  0.007924  (-0.032033  0.062042  0.055214)
 11:    118.05   0.000746    3.77  0.001973  (-0.004775 -0.010504 -0.042888)
 12:    146.69   0.001014    5.12  0.002157  (-0.011499 -0.016373  0.041907)
 13:    158.22   0.000201    1.02  0.000396  ( 0.004753  0.017766  0.007623)
 14:    178.73   0.001409    7.12  0.002460  ( 0.031349  0.033529  0.018789)
 15:    200.12   0.008384   42.37  0.013074  ( 0.105753  0.042088  0.010894)
 16:    235.69   0.011018   55.68  0.014589  ( 0.115424 -0.028134  0.021777)
 17:    249.97   0.001262    6.38  0.001576  ( 0.038499  0.004480 -0.008581)
 18:    289.21   0.002179   11.01  0.002352  ( 0.020121  0.044103 -0.001287)
 19:    318.05   0.002878   14.55  0.002824  (-0.027373  0.040125 -0.021559)
 20:    343.08   0.001456    7.36  0.001324  ( 0.005886  0.000758 -0.035901)
 21:    384.96   0.002923   14.77  0.002369  ( 0.042673 -0.000504  0.023406)
 22:    412.41   0.008255   41.72  0.006247  (-0.056116 -0.054778  0.009851)
 23:    420.12   0.002539   12.83  0.001886  ( 0.037597  0.021480  0.003283)
 24:    452.13   0.001003    5.07  0.000692  (-0.017579  0.018616  0.006067)
 25:    491.74   0.001128    5.70  0.000716  (-0.012139 -0.003925  0.023520)
 26:    532.17   0.005085   25.70  0.002982  ( 0.042770  0.027478 -0.019934)
 27:    570.23   0.004617   23.33  0.002527  ( 0.037746 -0.013000  0.030542)
 28:    606.80   0.001117    5.64  0.000574  ( 0.018513 -0.014948 -0.002871)
 29:    613.44   0.003062   15.47  0.001558  ( 0.022000  0.017224 -0.027872)
 30:    640.73   0.005724   28.92  0.002788  (-0.032351 -0.041208 -0.006557)
 31:    760.84   0.000441    2.23  0.000181  (-0.013080 -0.002653  0.001631)
 32:    824.89   0.009398   47.49  0.003555  ( 0.053959 -0.015852 -0.019810)
 33:    854.88   0.004068   20.56  0.001485  ( 0.027655  0.026715 -0.002568)
 34:    896.43   0.006012   30.38  0.002093  (-0.045684 -0.002390  0.000417)
 35:    953.47   0.002821   14.26  0.000923  ( 0.018313  0.005229  0.023677)
 36:    969.77   0.002570   12.99  0.000827  ( 0.021336  0.018238  0.006256)
 37:    989.83   0.003966   20.04  0.001250  (-0.028324  0.009033 -0.019142)
 38:   1015.11   0.007923   40.04  0.002436  (-0.033328  0.023498 -0.027801)
 39:   1049.85   0.005433   27.46  0.001615  ( 0.004837  0.005685 -0.039488)
 40:   1064.94   0.002236   11.30  0.000655  (-0.007408  0.019721  0.014538)
 41:   1082.55   0.006122   30.94  0.001765  ( 0.032902 -0.010349 -0.023979)
 42:   1091.16   0.008107   40.97  0.002319  ( 0.001638  0.039228 -0.027878)
 43:   1125.26   0.000792    4.00  0.000220  (-0.013981  0.002019  0.004469)
 44:   1143.77   0.019782   99.97  0.005397  ( 0.070800  0.008548  0.017651)
 45:   1171.46   0.002969   15.00  0.000791  ( 0.015254  0.017986 -0.015320)
 46:   1184.16   0.025123  126.96  0.006621  (-0.034319 -0.069976  0.023373)
 47:   1188.90   0.005726   28.94  0.001503  ( 0.029984 -0.003548  0.024320)
 48:   1236.16   0.007695   38.89  0.001943  (-0.030193  0.013373 -0.029190)
 49:   1278.47   0.012182   61.56  0.002974  (-0.033984 -0.042149 -0.006489)
 50:   1308.47   0.014636   73.97  0.003491  (-0.021239  0.037708 -0.040221)
 51:   1348.47   0.005741   29.01  0.001329  (-0.002379  0.019683 -0.030587)
 52:   1362.59   0.005276   26.66  0.001208  ( 0.023297  0.024680  0.007521)
 53:   1385.52   0.013603   68.75  0.003064  (-0.032302 -0.031706  0.031863)
 54:   1412.14   0.003021   15.27  0.000668  (-0.014643 -0.004437 -0.020819)
 55:   1414.24   0.004113   20.79  0.000908  (-0.028780 -0.007600  0.004648)
 56:   1429.65   0.009078   45.88  0.001982  ( 0.002000 -0.038809  0.021711)
 57:   1445.17   0.010714   54.14  0.002314  ( 0.043526  0.016129 -0.012606)
 58:   1455.96   0.015010   75.86  0.003217  (-0.008434  0.055964 -0.003760)
 59:   1464.48   0.030863  155.97  0.006577  ( 0.050899 -0.032499  0.054126)
 60:   1478.43   0.004559   23.04  0.000962  ( 0.012182  0.014560  0.024534)
 61:   1482.10   0.021781  110.07  0.004586  ( 0.034258  0.016175 -0.056132)
 62:   1493.98   0.017136   86.60  0.003579  (-0.007110  0.047486 -0.035692)
 63:   1498.88   0.007113   35.95  0.001481  (-0.021368 -0.008101  0.030964)
 64:   1500.76   0.004500   22.74  0.000936  (-0.012906  0.004048 -0.027435)
 65:   1505.85   0.001146    5.79  0.000237  (-0.002511 -0.013960  0.006024)
 66:   1511.86   0.000440    2.23  0.000091  (-0.007929  0.003245  0.004182)
 67:   1514.84   0.002208   11.16  0.000455  ( 0.008537 -0.012872  0.014710)
 68:   1518.20   0.001961    9.91  0.000403  (-0.018074  0.007784  0.003979)
 69:   1544.25   0.021853  110.44  0.004416  ( 0.019479 -0.051689 -0.036945)
 70:   1563.21   0.093226  471.13  0.018611  (-0.111790 -0.002702  0.078143)
 71:   1653.10   0.105037  530.81  0.019828  (-0.132337 -0.037215  0.030503)
 72:   1676.83   0.112724  569.66  0.020978  ( 0.114190 -0.023942  0.085824)
 73:   1696.56   0.032641  164.95  0.006004  (-0.068159  0.004436  0.036586)
 74:   1699.34   0.020629  104.25  0.003788  (-0.040667 -0.043829 -0.014613)
 75:   2943.99   0.304667  1539.66  0.032295  (-0.171139 -0.046205 -0.029520)
 76:   3052.23   0.008054   40.70  0.000823  ( 0.002810 -0.025042 -0.013726)
 77:   3057.11   0.007180   36.29  0.000733  ( 0.026161  0.006799 -0.001526)
 78:   3063.21   0.000768    3.88  0.000078  ( 0.008522  0.002282 -0.000628)
 79:   3070.03   0.005991   30.27  0.000609  (-0.011845 -0.008533 -0.019895)
 80:   3090.38   0.001788    9.03  0.000181  (-0.006151 -0.007388  0.009387)
 81:   3111.06   0.005974   30.19  0.000599  (-0.009482  0.015984 -0.015932)
 82:   3115.03   0.002089   10.56  0.000209  ( 0.004663  0.007421 -0.011510)
 83:   3125.12   0.001579    7.98  0.000158  (-0.007184  0.008010  0.006472)
 84:   3134.37   0.003026   15.29  0.000301  ( 0.002857 -0.010866  0.013231)
 85:   3144.53   0.001129    5.70  0.000112  ( 0.008709  0.003140 -0.005127)
 86:   3163.83   0.000349    1.77  0.000034  (-0.002310  0.001721 -0.005115)
 87:   3165.94   0.002558   12.93  0.000252  (-0.007909 -0.009280 -0.010174)
 88:   3167.56   0.001768    8.94  0.000174  ( 0.004850 -0.008186  0.009148)
 89:   3180.19   0.001721    8.70  0.000169  ( 0.010773  0.007217 -0.000857)
 90:   3195.12   0.000566    2.86  0.000055  (-0.002487  0.003623  0.006001)
 91:   3462.23   0.022927  115.86  0.002066  (-0.041966  0.005212  0.016677)
 92:   3521.95   0.023907  120.81  0.002118  (-0.006151  0.043007 -0.015194)

--------------------------
THERMOCHEMISTRY AT 298.15K
--------------------------

Temperature         ... 298.15 K
Pressure            ... 1.00 atm
Total Mass          ... 188.25 AMU

Throughout the following assumptions are being made:
  (1) The electronic state is orbitally nondegenerate
  (2) There are no thermally accessible electronically excited states
  (3) Hindered rotations indicated by low frequency modes are not
      treated as such but are treated as vibrations and this may
      cause some error
  (4) All equations used are the standard statistical mechanics
      equations for an ideal gas
  (5) All vibrations are strictly harmonic

freq.      34.34  E(vib)   ...       0.54
freq.      59.22  E(vib)   ...       0.51
freq.      83.84  E(vib)   ...       0.48
freq.      96.25  E(vib)   ...       0.47
freq.      99.78  E(vib)   ...       0.46
freq.     118.05  E(vib)   ...       0.44
freq.     146.69  E(vib)   ...       0.41
freq.     158.22  E(vib)   ...       0.39
freq.     178.73  E(vib)   ...       0.37
freq.     200.12  E(vib)   ...       0.35
freq.     235.69  E(vib)   ...       0.32
freq.     249.97  E(vib)   ...       0.31
freq.     289.21  E(vib)   ...       0.27
freq.     318.05  E(vib)   ...       0.25
freq.     343.08  E(vib)   ...       0.23
freq.     384.96  E(vib)   ...       0.20
freq.     412.41  E(vib)   ...       0.19
freq.     420.12  E(vib)   ...       0.18
freq.     452.13  E(vib)   ...       0.16
freq.     491.74  E(vib)   ...       0.14
freq.     532.17  E(vib)   ...       0.13
freq.     570.23  E(vib)   ...       0.11
freq.     606.80  E(vib)   ...       0.10
freq.     613.44  E(vib)   ...       0.10
freq.     640.73  E(vib)   ...       0.09
freq.     760.84  E(vib)   ...       0.06
freq.     824.89  E(vib)   ...       0.04
freq.     854.88  E(vib)   ...       0.04
freq.     896.43  E(vib)   ...       0.03
freq.     953.47  E(vib)   ...       0.03
freq.     969.77  E(vib)   ...       0.03
freq.     989.83  E(vib)   ...       0.02
freq.    1015.11  E(vib)   ...       0.02
freq.    1049.85  E(vib)   ...       0.02
freq.    1064.94  E(vib)   ...       0.02
freq.    1082.55  E(vib)   ...       0.02
freq.    1091.16  E(vib)   ...       0.02
freq.    1125.26  E(vib)   ...       0.01
freq.    1143.77  E(vib)   ...       0.01
freq.    1171.46  E(vib)   ...       0.01
freq.    1184.16  E(vib)   ...       0.01
freq.    1188.90  E(vib)   ...       0.01
freq.    1236.16  E(vib)   ...       0.01
freq.    1278.47  E(vib)   ...       0.01
freq.    1308.47  E(vib)   ...       0.01
freq.    1348.47  E(vib)   ...       0.01
freq.    1362.59  E(vib)   ...       0.01
freq.    1385.52  E(vib)   ...       0.00
freq.    1412.14  E(vib)   ...       0.00
freq.    1414.24  E(vib)   ...       0.00
freq.    1429.65  E(vib)   ...       0.00
freq.    1445.17  E(vib)   ...       0.00
freq.    1455.96  E(vib)   ...       0.00
freq.    1464.48  E(vib)   ...       0.00
freq.    1478.43  E(vib)   ...       0.00
freq.    1482.10  E(vib)   ...       0.00
freq.    1493.98  E(vib)   ...       0.00
freq.    1498.88  E(vib)   ...       0.00
freq.    1500.76  E(vib)   ...       0.00
freq.    1505.85  E(vib)   ...       0.00
freq.    1511.86  E(vib)   ...       0.00
freq.    1514.84  E(vib)   ...       0.00
freq.    1518.20  E(vib)   ...       0.00
freq.    1544.25  E(vib)   ...       0.00
freq.    1563.21  E(vib)   ...       0.00
freq.    1653.10  E(vib)   ...       0.00
freq.    1676.83  E(vib)   ...       0.00
freq.    1696.56  E(vib)   ...       0.00
freq.    1699.34  E(vib)   ...       0.00
freq.    2943.99  E(vib)   ...       0.00
freq.    3052.23  E(vib)   ...       0.00
freq.    3057.11  E(vib)   ...       0.00
freq.    3063.21  E(vib)   ...       0.00
freq.    3070.03  E(vib)   ...       0.00
freq.    3090.38  E(vib)   ...       0.00
freq.    3111.06  E(vib)   ...       0.00
freq.    3115.03  E(vib)   ...       0.00
freq.    3125.12  E(vib)   ...       0.00
freq.    3134.37  E(vib)   ...       0.00
freq.    3144.53  E(vib)   ...       0.00
freq.    3163.83  E(vib)   ...       0.00
freq.    3165.94  E(vib)   ...       0.00
freq.    3167.56  E(vib)   ...       0.00
freq.    3180.19  E(vib)   ...       0.00
freq.    3195.12  E(vib)   ...       0.00
freq.    3462.23  E(vib)   ...       0.00
freq.    3521.95  E(vib)   ...       0.00

------------
INNER ENERGY
------------

The inner energy is: U= E(el) + E(ZPE) + E(vib) + E(rot) + E(trans)
    E(el)   - is the total energy from the electronic structure calculation
              = E(kin-el) + E(nuc-el) + E(el-el) + E(nuc-nuc)
    E(ZPE)  - the the zero temperature vibrational energy from the frequency calculation
    E(vib)  - the the finite temperature correction to E(ZPE) due to population
              of excited vibrational states
    E(rot)  - is the rotational thermal energy
    E(trans)- is the translational thermal energy

Summary of contributions to the inner energy U:
Electronic energy                ...   -629.97593488 Eh
Zero point energy                ...      0.27735934 Eh     174.05 kcal/mol
Thermal vibrational correction   ...      0.01229795 Eh       7.72 kcal/mol
Thermal rotational correction    ...      0.00141627 Eh       0.89 kcal/mol
Thermal translational correction ...      0.00141627 Eh       0.89 kcal/mol
-----------------------------------------------------------------------
Total thermal energy                   -629.68344504 Eh

Summary of corrections to the electronic energy:
(perhaps to be used in another calculation)
Total thermal correction                  0.01513049 Eh       9.49 kcal/mol
Non-thermal (ZPE) correction              0.27735934 Eh     174.05 kcal/mol
-----------------------------------------------------------------------
Total correction                          0.29248983 Eh     183.54 kcal/mol

--------
ENTHALPY
--------

The enthalpy is H = U + kB*T
                kB is Boltzmann's constant
Total free energy                 ...   -629.68344504 Eh
Thermal Enthalpy correction       ...      0.00094421 Eh       0.59 kcal/mol
-----------------------------------------------------------------------
Total Enthalpy                    ...   -629.68250084 Eh

Note: Only C1 symmetry has been detected, increase convergence thresholds
      if your molecule has a higher symmetry. Symmetry factor of 1.0 is
      used for the rotational entropy correction.

Note: Rotational entropy computed according to Herzberg
Infrared and Raman Spectra, Chapter V,1, Van Nostrand Reinhold, 1945
Point Group:  C1, Symmetry Number:   1
Rotational constants in cm-1:     0.036829     0.018193     0.015301

Vibrational entropy computed according to the QRRHO of S. Grimme
Chem.Eur.J. 2012 18 9955

                             ****ORCA TERMINATED NORMALLY****
TOTAL RUN TIME: 0 days 0 hours 55 minutes 24 seconds 47 msec
