                         Program Version 5.0.4 -  RELEASE  -
|  1> ! OPT FREQ B3LYP 6-31G(d) D4 AUTOAUX
|  2> ! CPCM
|  3>
|  4> %cpcm
|  5> epsilon 9.8629
|  6> refrac  1.4295
|  7> end
|  8>
|  9> %PAL NPROCS 4 END
| 10>
| 11> %maxcore 3375
| 12>
| 13> *xyzfile 0 1 /users/fjb15167/WWenergy/structures/Nfp.xyz
| 14>
| 15>                          ****END OF INPUT****
 Total Charge           Charge          ....    0
 Multiplicity           Mult            ....    1
 Number of Electrons    NEL             ....  142
Dispersion correction           -0.077307205
FINAL SINGLE POINT ENERGY      -844.375709898201
Dispersion correction            ... Starting D4
Dispersion correction           -0.075665372
FINAL SINGLE POINT ENERGY      -844.375923008089
Dispersion correction            ... Starting D4
Dispersion correction           -0.076303437
FINAL SINGLE POINT ENERGY      -844.376451752104
Dispersion correction            ... Starting D4
FINAL SINGLE POINT ENERGY      -844.376512757500
FINAL SINGLE POINT ENERGY      -844.376559615472
FINAL SINGLE POINT ENERGY      -844.376576946911
FINAL SINGLE POINT ENERGY      -844.376588240370
FINAL SINGLE POINT ENERGY      -844.376595071644
FINAL SINGLE POINT ENERGY      -844.376599125165
FINAL SINGLE POINT ENERGY      -844.376602372040
FINAL SINGLE POINT ENERGY      -844.376604376688
Dispersion correction           -0.076329416
FINAL SINGLE POINT ENERGY      -844.376605438062
Dispersion correction            ... Starting D4
Dispersion correction           -0.076301870
FINAL SINGLE POINT ENERGY      -844.376604395194
Dispersion correction            ... Starting D4
                    ***********************HURRAY********************

CARTESIAN COORDINATES (ANGSTROEM)
---------------------------------
  C      2.738347   -2.699268   -0.934831
  H      1.693963   -2.755882   -1.256667
  H      2.873041   -3.410359   -0.111345
  H      3.385885   -2.991520   -1.762920
  C      3.130299   -1.295616   -0.508531
  O      4.106375   -0.728612   -1.016863
  N      2.369194   -0.696685    0.456538
  C      2.756914    0.619764    0.962792
  H      2.991125    0.543081    2.029246
  H      3.652892    0.930141    0.426008
  C      1.184904   -1.310289    1.070390
  H      1.334972   -2.389156    1.162552
  H      1.114187   -0.911571    2.088090
  C     -0.114129   -1.004046    0.313894
  H     -0.162364    0.066886    0.100232
  H     -0.117163   -1.514768   -0.657071
  C      1.623177    1.650395    0.865903
  N      1.311475    2.159450   -0.356300
  O      1.017415    1.976051    1.895370
  C      1.871884    1.701117   -1.622368
  H      1.157834    1.050989   -2.146741
  H      2.074863    2.570313   -2.257553
  H      2.800128    1.151000   -1.479288
  C      0.150785    3.036434   -0.472608
  H     -0.734459    2.470368   -0.795670
  H     -0.053894    3.491077    0.495617
  H      0.358940    3.815019   -1.213312
  C     -1.367685   -1.398237    1.113794
  H     -1.412986   -2.488250    1.229593
  H     -1.288885   -0.970083    2.122469
  C     -2.622183   -0.887800    0.443143
  C     -2.949984    0.474827    0.519795
  C     -3.446871   -1.733774   -0.307583
  C     -4.071979    0.978695   -0.138905
  H     -2.315193    1.141676    1.100213
  C     -4.573195   -1.234005   -0.967784
  H     -3.204770   -2.792388   -0.374980
  C     -4.888520    0.124011   -0.886746
  H     -4.312278    2.036555   -0.066349
  H     -5.203728   -1.906460   -1.544249
  H     -5.764334    0.513923   -1.398976

 Multiplicity           Mult            ....    1
 Number of Electrons    NEL             ....  142
 Basis Dimension        Dim             ....  310

ORBITAL ENERGIES
----------------

  NO   OCC          E(Eh)            E(eV)
   0   2.0000     -19.108469      -519.9679
   1   2.0000     -19.107518      -519.9420
   2   2.0000     -14.360502      -390.7691
   3   2.0000     -14.359236      -390.7347
   4   2.0000     -10.282968      -279.8138
   5   2.0000     -10.279393      -279.7165
   6   2.0000     -10.211112      -277.8585
   7   2.0000     -10.210163      -277.8327
   8   2.0000     -10.199382      -277.5393
   9   2.0000     -10.196285      -277.4550
  10   2.0000     -10.184415      -277.1320
  11   2.0000     -10.177273      -276.9377
  12   2.0000     -10.177043      -276.9314
  13   2.0000     -10.175522      -276.8900
  14   2.0000     -10.174733      -276.8686
  15   2.0000     -10.174355      -276.8583
  16   2.0000     -10.174309      -276.8570
  17   2.0000     -10.173588      -276.8374
  18   2.0000     -10.173270      -276.8287
  19   2.0000      -1.031988       -28.0818
  20   2.0000      -1.025296       -27.8997
  21   2.0000      -0.933666       -25.4064
  22   2.0000      -0.926374       -25.2079
  23   2.0000      -0.848793       -23.0968
  24   2.0000      -0.791784       -21.5455
  25   2.0000      -0.759012       -20.6538
  26   2.0000      -0.740845       -20.1594
  27   2.0000      -0.735723       -20.0200
  28   2.0000      -0.717998       -19.5377
  29   2.0000      -0.706249       -19.2180
  30   2.0000      -0.679988       -18.5034
  31   2.0000      -0.668051       -18.1786
  32   2.0000      -0.611582       -16.6420
  33   2.0000      -0.596478       -16.2310
  34   2.0000      -0.569550       -15.4982
  35   2.0000      -0.551299       -15.0016
  36   2.0000      -0.536542       -14.6001
  37   2.0000      -0.511890       -13.9292
  38   2.0000      -0.500586       -13.6216
  39   2.0000      -0.485547       -13.2124
  40   2.0000      -0.478045       -13.0083
  41   2.0000      -0.464696       -12.6450
  42   2.0000      -0.459502       -12.5037
  43   2.0000      -0.455383       -12.3916
  44   2.0000      -0.448452       -12.2030
  45   2.0000      -0.444802       -12.1037
  46   2.0000      -0.429307       -11.6820
  47   2.0000      -0.416876       -11.3438
  48   2.0000      -0.410433       -11.1684
  49   2.0000      -0.406899       -11.0723
  50   2.0000      -0.402066       -10.9408
  51   2.0000      -0.399917       -10.8823
  52   2.0000      -0.396079       -10.7779
  53   2.0000      -0.394194       -10.7266
  54   2.0000      -0.389684       -10.6038
  55   2.0000      -0.379092       -10.3156
  56   2.0000      -0.374642       -10.1945
  57   2.0000      -0.372398       -10.1335
  58   2.0000      -0.364302        -9.9132
  59   2.0000      -0.360244        -9.8027
  60   2.0000      -0.347171        -9.4470
  61   2.0000      -0.341603        -9.2955
  62   2.0000      -0.336198        -9.1484
  63   2.0000      -0.326502        -8.8846
  64   2.0000      -0.323632        -8.8065
  65   2.0000      -0.258687        -7.0392
  66   2.0000      -0.251421        -6.8415
  67   2.0000      -0.245072        -6.6688
  68   2.0000      -0.241520        -6.5721
  69   2.0000      -0.236614        -6.4386
  70   2.0000      -0.229854        -6.2547
  71   0.0000       0.002472         0.0673
  72   0.0000       0.005930         0.1614
  73   0.0000       0.016193         0.4406
  74   0.0000       0.029747         0.8095
  75   0.0000       0.086308         2.3485

MULLIKEN ATOMIC CHARGES
-----------------------
   0 C :   -0.562275
   1 H :    0.191839
   2 H :    0.195313
   3 H :    0.181753
   4 C :    0.528846
   5 O :   -0.533387
   6 N :   -0.370958
   7 C :   -0.247473
   8 H :    0.180592
   9 H :    0.204543
  10 C :   -0.167082
  11 H :    0.177652
  12 H :    0.173525
  13 C :   -0.281520
  14 H :    0.170652
  15 H :    0.155234
  16 C :    0.516169
  17 N :   -0.359129
  18 O :   -0.539517
  19 C :   -0.346962
  20 H :    0.169458
  21 H :    0.172825
  22 H :    0.196542
  23 C :   -0.330946
  24 H :    0.170744
  25 H :    0.185572
  26 H :    0.170516
  27 C :   -0.350853
  28 H :    0.153839
  29 H :    0.157032
  30 C :    0.154379
  31 C :   -0.192010
  32 C :   -0.200071
  33 C :   -0.151889
  34 H :    0.146370
  35 C :   -0.148160
  36 H :    0.141334
  37 C :   -0.150871
  38 H :    0.146791
  39 H :    0.146146
  40 H :    0.145435
Sum of atomic charges:    0.0000000

LOEWDIN ATOMIC CHARGES
----------------------
   0 C :   -0.392677
   1 H :    0.152305
   2 H :    0.156619
   3 H :    0.150381
   4 C :    0.114021
   5 O :   -0.336486
   6 N :   -0.068150
   7 C :   -0.178363
   8 H :    0.145072
   9 H :    0.159535
  10 C :   -0.159149
  11 H :    0.141139
  12 H :    0.139695
  13 C :   -0.239800
  14 H :    0.134468
  15 H :    0.127700
  16 C :    0.093798
  17 N :   -0.070884
  18 O :   -0.335838
  19 C :   -0.285800
  20 H :    0.131185
  21 H :    0.136609
  22 H :    0.149525
  23 C :   -0.280105
  24 H :    0.131041
  25 H :    0.147012
  26 H :    0.136887
  27 C :   -0.225475
  28 H :    0.131143
  29 H :    0.133767
  30 C :   -0.019234
  31 C :   -0.142929
  32 C :   -0.144968
  33 C :   -0.137649
  34 H :    0.137540
  35 C :   -0.137368
  36 H :    0.136205
  37 C :   -0.145166
  38 H :    0.138370
  39 H :    0.138149
  40 H :    0.137875

  Mayer bond orders larger than 0.100000
B(  0-C ,  1-H ) :   0.9195 B(  0-C ,  2-H ) :   0.9216 B(  0-C ,  3-H ) :   0.9388
B(  0-C ,  4-C ) :   0.9930 B(  4-C ,  5-O ) :   1.7453 B(  4-C ,  6-N ) :   1.1663
B(  6-N ,  7-C ) :   0.9538 B(  6-N , 10-C ) :   0.9273 B(  7-C ,  8-H ) :   0.9160
B(  7-C ,  9-H ) :   0.8934 B(  7-C , 16-C ) :   0.9379 B( 10-C , 11-H ) :   0.9227
B( 10-C , 12-H ) :   0.9225 B( 10-C , 13-C ) :   0.9828 B( 13-C , 14-H ) :   0.9204
B( 13-C , 15-H ) :   0.9300 B( 13-C , 27-C ) :   0.9861 B( 16-C , 17-N ) :   1.1931
B( 16-C , 18-O ) :   1.7512 B( 17-N , 19-C ) :   0.9504 B( 17-N , 23-C ) :   0.9475
B( 19-C , 20-H ) :   0.9307 B( 19-C , 21-H ) :   0.9348 B( 19-C , 22-H ) :   0.9017
B( 23-C , 24-H ) :   0.9291 B( 23-C , 25-H ) :   0.9277 B( 23-C , 26-H ) :   0.9371
B( 27-C , 28-H ) :   0.9325 B( 27-C , 29-H ) :   0.9273 B( 27-C , 30-C ) :   0.9866
B( 30-C , 31-C ) :   1.4208 B( 30-C , 32-C ) :   1.4468 B( 31-C , 33-C ) :   1.4439
B( 31-C , 34-H ) :   0.9178 B( 32-C , 35-C ) :   1.4286 B( 32-C , 36-H ) :   0.9225
B( 33-C , 37-C ) :   1.4404 B( 33-C , 38-H ) :   0.9270 B( 35-C , 37-C ) :   1.4564
B( 35-C , 39-H ) :   0.9269 B( 37-C , 40-H ) :   0.9278

Dispersion correction           -0.076302002
FINAL SINGLE POINT ENERGY      -844.376603484608

DIPOLE MOMENT
-------------
                                X             Y             Z
Electronic contribution:      0.42380       1.50880       3.62364
Nuclear contribution   :     -1.38666      -2.35993      -4.38669
                        -----------------------------------------
Total Dipole Moment    :     -0.96286      -0.85113      -0.76305
                        -----------------------------------------
Magnitude (a.u.)       :      1.49458
Magnitude (Debye)      :      3.79891

Dispersion correction in the Hessian             ... Starting D4

VIBRATIONAL FREQUENCIES
-----------------------

Scaling factor for frequencies =  1.000000000  (already applied!)

   0:         0.00 cm**-1
   1:         0.00 cm**-1
   2:         0.00 cm**-1
   3:         0.00 cm**-1
   4:         0.00 cm**-1
   5:         0.00 cm**-1
   6:        14.57 cm**-1
   7:        27.84 cm**-1
   8:        31.96 cm**-1
   9:        51.01 cm**-1
  10:        62.32 cm**-1
  11:        75.83 cm**-1
  12:        85.33 cm**-1
  13:       101.36 cm**-1
  14:       114.72 cm**-1
  15:       138.01 cm**-1
  16:       151.08 cm**-1
  17:       167.64 cm**-1
  18:       170.27 cm**-1
  19:       211.93 cm**-1
  20:       217.06 cm**-1
  21:       266.35 cm**-1
  22:       274.70 cm**-1
  23:       292.14 cm**-1
  24:       340.80 cm**-1
  25:       352.71 cm**-1
  26:       386.08 cm**-1
  27:       417.39 cm**-1
  28:       420.67 cm**-1
  29:       432.96 cm**-1
  30:       461.29 cm**-1
  31:       491.77 cm**-1
  32:       519.98 cm**-1
  33:       580.00 cm**-1
  34:       587.03 cm**-1
  35:       601.39 cm**-1
  36:       633.71 cm**-1
  37:       636.05 cm**-1
  38:       701.23 cm**-1
  39:       716.52 cm**-1
  40:       744.02 cm**-1
  41:       763.85 cm**-1
  42:       770.34 cm**-1
  43:       811.79 cm**-1
  44:       841.32 cm**-1
  45:       864.28 cm**-1
  46:       872.32 cm**-1
  47:       927.60 cm**-1
  48:       958.00 cm**-1
  49:       976.04 cm**-1
  50:       999.90 cm**-1
  51:      1002.30 cm**-1
  52:      1012.04 cm**-1
  53:      1015.29 cm**-1
  54:      1046.96 cm**-1
  55:      1053.39 cm**-1
  56:      1056.02 cm**-1
  57:      1060.23 cm**-1
  58:      1062.50 cm**-1
  59:      1087.97 cm**-1
  60:      1090.62 cm**-1
  61:      1127.34 cm**-1
  62:      1135.61 cm**-1
  63:      1165.63 cm**-1
  64:      1182.64 cm**-1
  65:      1184.37 cm**-1
  66:      1205.47 cm**-1
  67:      1212.66 cm**-1
  68:      1234.72 cm**-1
  69:      1243.75 cm**-1
  70:      1284.13 cm**-1
  71:      1289.37 cm**-1
  72:      1298.36 cm**-1
  73:      1315.85 cm**-1
  74:      1350.80 cm**-1
  75:      1360.48 cm**-1
  76:      1368.14 cm**-1
  77:      1370.53 cm**-1
  78:      1389.52 cm**-1
  79:      1411.31 cm**-1
  80:      1422.84 cm**-1
  81:      1443.36 cm**-1
  82:      1458.38 cm**-1
  83:      1476.05 cm**-1
  84:      1485.54 cm**-1
  85:      1490.41 cm**-1
  86:      1497.98 cm**-1
  87:      1500.76 cm**-1
  88:      1504.01 cm**-1
  89:      1505.68 cm**-1
  90:      1512.67 cm**-1
  91:      1518.08 cm**-1
  92:      1521.38 cm**-1
  93:      1530.20 cm**-1
  94:      1536.48 cm**-1
  95:      1543.24 cm**-1
  96:      1554.67 cm**-1
  97:      1639.96 cm**-1
  98:      1661.14 cm**-1
  99:      1705.98 cm**-1
 100:      1712.35 cm**-1
 101:      3032.07 cm**-1
 102:      3035.81 cm**-1
 103:      3036.73 cm**-1
 104:      3060.36 cm**-1
 105:      3065.97 cm**-1
 106:      3076.95 cm**-1
 107:      3080.84 cm**-1
 108:      3084.76 cm**-1
 109:      3097.01 cm**-1
 110:      3108.32 cm**-1
 111:      3120.02 cm**-1
 112:      3131.93 cm**-1
 113:      3137.69 cm**-1
 114:      3168.49 cm**-1
 115:      3171.69 cm**-1
 116:      3175.85 cm**-1
 117:      3178.14 cm**-1
 118:      3188.83 cm**-1
 119:      3189.12 cm**-1
 120:      3193.96 cm**-1
 121:      3196.87 cm**-1
 122:      3208.88 cm**-1

IR SPECTRUM
-----------

 Mode   freq       eps      Int      T**2         TX        TY        TZ
       cm**-1   L/(mol*cm) km/mol    a.u.
----------------------------------------------------------------------------
  6:     14.57   0.000186    0.94  0.003974  (-0.060487  0.015210  0.009148)
  7:     27.84   0.000313    1.58  0.003509  ( 0.041567  0.042176 -0.001642)
  8:     31.96   0.000111    0.56  0.001081  ( 0.022028 -0.001530 -0.024361)
  9:     51.01   0.001019    5.15  0.006237  (-0.061243 -0.047672 -0.014613)
 10:     62.32   0.000652    3.29  0.003263  (-0.033689 -0.027636 -0.036940)
 11:     75.83   0.000424    2.14  0.001743  ( 0.011240 -0.039922 -0.004819)
 12:     85.33   0.000184    0.93  0.000674  (-0.000293 -0.023923 -0.010085)
 13:    101.36   0.000381    1.93  0.001173  (-0.001415 -0.031910 -0.012374)
 14:    114.72   0.002850   14.40  0.007751  (-0.044367  0.059885 -0.046871)
 15:    138.01   0.001012    5.12  0.002289  (-0.005685  0.047402  0.003085)
 16:    151.08   0.000232    1.17  0.000479  (-0.016776 -0.006484 -0.012489)
 17:    167.64   0.000142    0.72  0.000265  (-0.009291  0.012135  0.005619)
 18:    170.27   0.000112    0.57  0.000206  (-0.000702 -0.009499 -0.010737)
 19:    211.93   0.000031    0.16  0.000046  (-0.003417 -0.004605 -0.003620)
 20:    217.06   0.000513    2.59  0.000737  ( 0.019960  0.018281 -0.002129)
 21:    266.35   0.002249   11.36  0.002635  ( 0.020721  0.046960  0.000156)
 22:    274.70   0.001361    6.88  0.001546  (-0.004885 -0.033185  0.020510)
 23:    292.14   0.000355    1.79  0.000379  (-0.013769  0.012667  0.005397)
 24:    340.80   0.000192    0.97  0.000176  ( 0.002285 -0.010678 -0.007514)
 25:    352.71   0.002590   13.09  0.002291  ( 0.010791 -0.012954  0.044801)
 26:    386.08   0.001756    8.87  0.001419  ( 0.025387 -0.014656  0.023660)
 27:    417.39   0.000023    0.12  0.000017  (-0.000745  0.003932 -0.001129)
 28:    420.67   0.001849    9.34  0.001371  (-0.026008  0.024852 -0.008792)
 29:    432.96   0.000058    0.29  0.000042  (-0.001184  0.006304 -0.000594)
 30:    461.29   0.002650   13.39  0.001793  (-0.038832 -0.003287  0.016552)
 31:    491.77   0.004615   23.32  0.002928  (-0.023094 -0.045227 -0.018697)
 32:    519.98   0.003323   16.79  0.001994  ( 0.036158 -0.003839 -0.025922)
 33:    580.00   0.003151   15.93  0.001696  (-0.024554  0.030298 -0.013216)
 34:    587.03   0.000512    2.58  0.000272  (-0.015232 -0.000271  0.006311)
 35:    601.39   0.002358   11.91  0.001223  ( 0.032568 -0.012750  0.000423)
 36:    633.71   0.001230    6.22  0.000606  (-0.004057  0.003708 -0.023991)
 37:    636.05   0.003377   17.06  0.001657  (-0.009519 -0.002035 -0.039521)
 38:    701.23   0.000896    4.53  0.000399  (-0.011337 -0.010781  0.012403)
 39:    716.52   0.007700   38.91  0.003354  ( 0.034120  0.008905 -0.045937)
 40:    744.02   0.002077   10.50  0.000871  (-0.001895  0.029350 -0.002469)
 41:    763.85   0.002010   10.16  0.000821  (-0.003011 -0.015673  0.023800)
 42:    770.34   0.005794   29.28  0.002347  (-0.031080  0.000006  0.037163)
 43:    811.79   0.005587   28.23  0.002148  ( 0.004618  0.025738 -0.038260)
 44:    841.32   0.001241    6.27  0.000460  ( 0.004028  0.017236 -0.012123)
 45:    864.28   0.000208    1.05  0.000075  (-0.002301 -0.006206 -0.005581)
 46:    872.32   0.001245    6.29  0.000445  ( 0.007553 -0.010409 -0.016728)
 47:    927.60   0.000900    4.55  0.000303  (-0.008325 -0.005703  0.014178)
 48:    958.00   0.000406    2.05  0.000132  ( 0.005544  0.006456 -0.007734)
 49:    976.04   0.000053    0.27  0.000017  ( 0.003238  0.000170 -0.002514)
 50:    999.90   0.000250    1.26  0.000078  (-0.002911 -0.002731  0.007886)
 51:   1002.30   0.004378   22.13  0.001363  ( 0.006595 -0.012357  0.034162)
 52:   1012.04   0.007257   36.67  0.002238  ( 0.044823 -0.015009 -0.001798)
 53:   1015.29   0.000042    0.21  0.000013  ( 0.003036 -0.001616  0.001077)
 54:   1046.96   0.000284    1.44  0.000085  ( 0.008037 -0.004177  0.001614)
 55:   1053.39   0.003879   19.60  0.001149  ( 0.003192  0.003658  0.033551)
 56:   1056.02   0.002231   11.27  0.000659  (-0.021034  0.008968 -0.011680)
 57:   1060.23   0.003588   18.13  0.001056  ( 0.025477 -0.020156  0.000787)
 58:   1062.50   0.001725    8.72  0.000507  ( 0.009343 -0.007635  0.018999)
 59:   1087.97   0.004492   22.70  0.001288  (-0.018104  0.017110  0.025845)
 60:   1090.62   0.002392   12.09  0.000685  (-0.012703 -0.003839 -0.022548)
 61:   1127.34   0.002958   14.95  0.000819  (-0.003737 -0.027298  0.007723)
 62:   1135.61   0.000648    3.27  0.000178  ( 0.006353 -0.011406 -0.002739)
 63:   1165.63   0.009901   50.04  0.002651  ( 0.000058 -0.025603  0.044668)
 64:   1182.64   0.000027    0.14  0.000007  ( 0.000358  0.002616 -0.000525)
 65:   1184.37   0.001764    8.91  0.000465  ( 0.000421  0.011219 -0.018403)
 66:   1205.47   0.000262    1.33  0.000068  (-0.001537  0.000177 -0.008097)
 67:   1212.66   0.008685   43.89  0.002235  ( 0.003256  0.011886  0.045642)
 68:   1234.72   0.000101    0.51  0.000026  ( 0.004922 -0.000992  0.000629)
 69:   1243.75   0.008145   41.16  0.002044  ( 0.039298 -0.017327 -0.014110)
 70:   1284.13   0.020985  106.05  0.005100  (-0.008316  0.047932  0.052278)
 71:   1289.37   0.023788  120.21  0.005757  ( 0.048800 -0.056630 -0.012998)
 72:   1298.36   0.000469    2.37  0.000113  ( 0.006695 -0.003114  0.007624)
 73:   1315.85   0.001060    5.36  0.000251  ( 0.014023  0.006287 -0.003905)
 74:   1350.80   0.002539   12.83  0.000587  ( 0.011543 -0.017068 -0.012733)
 75:   1360.48   0.000166    0.84  0.000038  (-0.004567 -0.003337  0.002459)
 76:   1368.14   0.000055    0.28  0.000013  (-0.003327  0.000766 -0.000921)
 77:   1370.53   0.000236    1.19  0.000054  ( 0.001116  0.006124 -0.003871)
 78:   1389.52   0.002245   11.35  0.000504  (-0.018244 -0.003674  0.012563)
 79:   1411.31   0.004880   24.66  0.001079  ( 0.028143  0.016662  0.003069)
 80:   1422.84   0.007878   39.81  0.001728  ( 0.034909 -0.009434 -0.020497)
 81:   1443.36   0.018274   92.35  0.003951  (-0.023533  0.031313 -0.049158)
 82:   1458.38   0.012623   63.79  0.002701  (-0.024332  0.040002 -0.022557)
 83:   1476.05   0.045058  227.70  0.009526  (-0.063190  0.047980  0.056841)
 84:   1485.54   0.003670   18.55  0.000771  (-0.017623 -0.019845  0.008155)
 85:   1490.41   0.000754    3.81  0.000158  (-0.008604 -0.003372 -0.008517)
 86:   1497.98   0.002186   11.05  0.000455  ( 0.000104  0.018821  0.010060)
 87:   1500.76   0.001394    7.04  0.000290  (-0.003545  0.002325  0.016486)
 88:   1504.01   0.004504   22.76  0.000934  ( 0.003965  0.024427  0.017946)
 89:   1505.68   0.001372    6.93  0.000284  ( 0.014215 -0.008059  0.004153)
 90:   1512.67   0.000921    4.65  0.000190  ( 0.006614 -0.009887 -0.006966)
 91:   1518.08   0.003353   16.94  0.000689  ( 0.009223  0.024119 -0.004739)
 92:   1521.38   0.001953    9.87  0.000401  (-0.009373  0.013175  0.011793)
 93:   1530.20   0.006196   31.31  0.001264  ( 0.026603  0.020694 -0.011293)
 94:   1536.48   0.005506   27.83  0.001118  ( 0.000299  0.012747  0.030916)
 95:   1543.24   0.005003   25.28  0.001012  ( 0.026230 -0.009118  0.015505)
 96:   1554.67   0.015899   80.35  0.003191  ( 0.035008 -0.030764  0.031928)
 97:   1639.96   0.000278    1.40  0.000053  (-0.001115 -0.005694 -0.004386)
 98:   1661.14   0.002511   12.69  0.000472  (-0.020852  0.003576 -0.004905)
 99:   1705.98   0.163444  825.98  0.029898  (-0.119591 -0.024798  0.122396)
100:   1712.35   0.059182  299.08  0.010786  ( 0.012957  0.017076  0.101617)
101:   3032.07   0.004977   25.15  0.000512  ( 0.014998 -0.008533 -0.014646)
102:   3035.81   0.008536   43.14  0.000877  (-0.007563  0.010633 -0.026593)
103:   3036.73   0.015981   80.76  0.001642  (-0.024339  0.000215 -0.032401)
104:   3060.36   0.004023   20.33  0.000410  (-0.003247 -0.001374  0.019945)
105:   3065.97   0.000859    4.34  0.000087  ( 0.001804  0.007028  0.005901)
106:   3076.95   0.008634   43.63  0.000876  (-0.004609 -0.020642  0.020696)
107:   3080.84   0.006628   33.50  0.000671  ( 0.000836 -0.016587 -0.019889)
108:   3084.76   0.010513   53.13  0.001064  ( 0.006779  0.006909  0.031142)
109:   3097.01   0.010422   52.67  0.001050  ( 0.013767  0.027129 -0.011163)
110:   3108.32   0.006592   33.31  0.000662  (-0.008266 -0.022647  0.008978)
111:   3120.02   0.000148    0.75  0.000015  (-0.000823 -0.002506  0.002802)
112:   3131.93   0.002140   10.81  0.000213  (-0.008779  0.005177 -0.010457)
113:   3137.69   0.012924   65.31  0.001285  (-0.004970  0.034826  0.006913)
114:   3168.49   0.001406    7.11  0.000139  (-0.005585  0.010129 -0.002176)
115:   3171.69   0.002671   13.50  0.000263  ( 0.012290 -0.001874 -0.010404)
116:   3175.85   0.002288   11.56  0.000225  ( 0.012275 -0.000004  0.008610)
117:   3178.14   0.001743    8.81  0.000171  (-0.003512  0.012602 -0.000060)
118:   3188.83   0.001191    6.02  0.000117  (-0.004486  0.006307  0.007525)
119:   3189.12   0.002141   10.82  0.000209  ( 0.010733 -0.005776  0.007806)
120:   3193.96   0.000539    2.73  0.000053  (-0.001362 -0.007105  0.000594)
121:   3196.87   0.011796   59.61  0.001151  (-0.006121 -0.031538 -0.010925)
122:   3208.88   0.005477   27.68  0.000533  (-0.019627  0.006592 -0.010197)

--------------------------
THERMOCHEMISTRY AT 298.15K
--------------------------

Temperature         ... 298.15 K
Pressure            ... 1.00 atm
Total Mass          ... 262.35 AMU

Throughout the following assumptions are being made:
  (1) The electronic state is orbitally nondegenerate
  (2) There are no thermally accessible electronically excited states
  (3) Hindered rotations indicated by low frequency modes are not
      treated as such but are treated as vibrations and this may
      cause some error
  (4) All equations used are the standard statistical mechanics
      equations for an ideal gas
  (5) All vibrations are strictly harmonic

freq.      14.57  E(vib)   ...       0.57
freq.      27.84  E(vib)   ...       0.55
freq.      31.96  E(vib)   ...       0.55
freq.      51.01  E(vib)   ...       0.52
freq.      62.32  E(vib)   ...       0.51
freq.      75.83  E(vib)   ...       0.49
freq.      85.33  E(vib)   ...       0.48
freq.     101.36  E(vib)   ...       0.46
freq.     114.72  E(vib)   ...       0.44
freq.     138.01  E(vib)   ...       0.42
freq.     151.08  E(vib)   ...       0.40
freq.     167.64  E(vib)   ...       0.38
freq.     170.27  E(vib)   ...       0.38
freq.     211.93  E(vib)   ...       0.34
freq.     217.06  E(vib)   ...       0.34
freq.     266.35  E(vib)   ...       0.29
freq.     274.70  E(vib)   ...       0.28
freq.     292.14  E(vib)   ...       0.27
freq.     340.80  E(vib)   ...       0.23
freq.     352.71  E(vib)   ...       0.22
freq.     386.08  E(vib)   ...       0.20
freq.     417.39  E(vib)   ...       0.18
freq.     420.67  E(vib)   ...       0.18
freq.     432.96  E(vib)   ...       0.17
freq.     461.29  E(vib)   ...       0.16
freq.     491.77  E(vib)   ...       0.14
freq.     519.98  E(vib)   ...       0.13
freq.     580.00  E(vib)   ...       0.11
freq.     587.03  E(vib)   ...       0.10
freq.     601.39  E(vib)   ...       0.10
freq.     633.71  E(vib)   ...       0.09
freq.     636.05  E(vib)   ...       0.09
freq.     701.23  E(vib)   ...       0.07
freq.     716.52  E(vib)   ...       0.07
freq.     744.02  E(vib)   ...       0.06
freq.     763.85  E(vib)   ...       0.06
freq.     770.34  E(vib)   ...       0.05
freq.     811.79  E(vib)   ...       0.05
freq.     841.32  E(vib)   ...       0.04
freq.     864.28  E(vib)   ...       0.04
freq.     872.32  E(vib)   ...       0.04
freq.     927.60  E(vib)   ...       0.03
freq.     958.00  E(vib)   ...       0.03
freq.     976.04  E(vib)   ...       0.03
freq.     999.90  E(vib)   ...       0.02
freq.    1002.30  E(vib)   ...       0.02
freq.    1012.04  E(vib)   ...       0.02
freq.    1015.29  E(vib)   ...       0.02
freq.    1046.96  E(vib)   ...       0.02
freq.    1053.39  E(vib)   ...       0.02
freq.    1056.02  E(vib)   ...       0.02
freq.    1060.23  E(vib)   ...       0.02
freq.    1062.50  E(vib)   ...       0.02
freq.    1087.97  E(vib)   ...       0.02
freq.    1090.62  E(vib)   ...       0.02
freq.    1127.34  E(vib)   ...       0.01
freq.    1135.61  E(vib)   ...       0.01
freq.    1165.63  E(vib)   ...       0.01
freq.    1182.64  E(vib)   ...       0.01
freq.    1184.37  E(vib)   ...       0.01
freq.    1205.47  E(vib)   ...       0.01
freq.    1212.66  E(vib)   ...       0.01
freq.    1234.72  E(vib)   ...       0.01
freq.    1243.75  E(vib)   ...       0.01
freq.    1284.13  E(vib)   ...       0.01
freq.    1289.37  E(vib)   ...       0.01
freq.    1298.36  E(vib)   ...       0.01
freq.    1315.85  E(vib)   ...       0.01
freq.    1350.80  E(vib)   ...       0.01
freq.    1360.48  E(vib)   ...       0.01
freq.    1368.14  E(vib)   ...       0.01
freq.    1370.53  E(vib)   ...       0.01
freq.    1389.52  E(vib)   ...       0.00
freq.    1411.31  E(vib)   ...       0.00
freq.    1422.84  E(vib)   ...       0.00
freq.    1443.36  E(vib)   ...       0.00
freq.    1458.38  E(vib)   ...       0.00
freq.    1476.05  E(vib)   ...       0.00
freq.    1485.54  E(vib)   ...       0.00
freq.    1490.41  E(vib)   ...       0.00
freq.    1497.98  E(vib)   ...       0.00
freq.    1500.76  E(vib)   ...       0.00
freq.    1504.01  E(vib)   ...       0.00
freq.    1505.68  E(vib)   ...       0.00
freq.    1512.67  E(vib)   ...       0.00
freq.    1518.08  E(vib)   ...       0.00
freq.    1521.38  E(vib)   ...       0.00
freq.    1530.20  E(vib)   ...       0.00
freq.    1536.48  E(vib)   ...       0.00
freq.    1543.24  E(vib)   ...       0.00
freq.    1554.67  E(vib)   ...       0.00
freq.    1639.96  E(vib)   ...       0.00
freq.    1661.14  E(vib)   ...       0.00
freq.    1705.98  E(vib)   ...       0.00
freq.    1712.35  E(vib)   ...       0.00
freq.    3032.07  E(vib)   ...       0.00
freq.    3035.81  E(vib)   ...       0.00
freq.    3036.73  E(vib)   ...       0.00
freq.    3060.36  E(vib)   ...       0.00
freq.    3065.97  E(vib)   ...       0.00
freq.    3076.95  E(vib)   ...       0.00
freq.    3080.84  E(vib)   ...       0.00
freq.    3084.76  E(vib)   ...       0.00
freq.    3097.01  E(vib)   ...       0.00
freq.    3108.32  E(vib)   ...       0.00
freq.    3120.02  E(vib)   ...       0.00
freq.    3131.93  E(vib)   ...       0.00
freq.    3137.69  E(vib)   ...       0.00
freq.    3168.49  E(vib)   ...       0.00
freq.    3171.69  E(vib)   ...       0.00
freq.    3175.85  E(vib)   ...       0.00
freq.    3178.14  E(vib)   ...       0.00
freq.    3188.83  E(vib)   ...       0.00
freq.    3189.12  E(vib)   ...       0.00
freq.    3193.96  E(vib)   ...       0.00
freq.    3196.87  E(vib)   ...       0.00
freq.    3208.88  E(vib)   ...       0.00

------------
INNER ENERGY
------------

The inner energy is: U= E(el) + E(ZPE) + E(vib) + E(rot) + E(trans)
    E(el)   - is the total energy from the electronic structure calculation
              = E(kin-el) + E(nuc-el) + E(el-el) + E(nuc-nuc)
    E(ZPE)  - the the zero temperature vibrational energy from the frequency calculation
    E(vib)  - the the finite temperature correction to E(ZPE) due to population
              of excited vibrational states
    E(rot)  - is the rotational thermal energy
    E(trans)- is the translational thermal energy

Summary of contributions to the inner energy U:
Electronic energy                ...   -844.37660348 Eh
Zero point energy                ...      0.35503559 Eh     222.79 kcal/mol
Thermal vibrational correction   ...      0.01721498 Eh      10.80 kcal/mol
Thermal rotational correction    ...      0.00141627 Eh       0.89 kcal/mol
Thermal translational correction ...      0.00141627 Eh       0.89 kcal/mol
-----------------------------------------------------------------------
Total thermal energy                   -844.00152038 Eh

Summary of corrections to the electronic energy:
(perhaps to be used in another calculation)
Total thermal correction                  0.02004752 Eh      12.58 kcal/mol

Rotational constants in cm-1:     0.018401     0.007409     0.006228

                             ****ORCA TERMINATED NORMALLY****
TOTAL RUN TIME: 0 days 0 hours 50 minutes 27 seconds 282 msec
