                         Program Version 5.0.4 -  RELEASE  -
|  1> ! OPT FREQ B3LYP 6-31G(d) D4 AUTOAUX CPCM(water)
|  2>
|  3> %PAL NPROCS 4 END
|  4>
|  5> %maxcore 3375
|  6>
|  7> *xyzfile 0 1 /users/fjb15167/WWenergy/structures/Nw.xyz
|  8>
|  9>                          ****END OF INPUT****
 Total Charge           Charge          ....    0
 Multiplicity           Mult            ....    1
 Number of Electrons    NEL             ....  146
Dispersion correction           -0.087923714
FINAL SINGLE POINT ENERGY      -897.314076326032
Dispersion correction            ... Starting D4
Dispersion correction           -0.086585357
FINAL SINGLE POINT ENERGY      -897.314109465965
Dispersion correction            ... Starting D4
Dispersion correction           -0.085000431
FINAL SINGLE POINT ENERGY      -897.314253615041
Dispersion correction            ... Starting D4
FINAL SINGLE POINT ENERGY      -897.315003976404
FINAL SINGLE POINT ENERGY      -897.315269273998
FINAL SINGLE POINT ENERGY      -897.315252031817
FINAL SINGLE POINT ENERGY      -897.315443831289
FINAL SINGLE POINT ENERGY      -897.315476930069
FINAL SINGLE POINT ENERGY      -897.315512024997
FINAL SINGLE POINT ENERGY      -897.315533841521
FINAL SINGLE POINT ENERGY      -897.315541840935
Dispersion correction           -0.086830120
FINAL SINGLE POINT ENERGY      -897.315543419769
Dispersion correction            ... Starting D4
Dispersion correction           -0.086849766
FINAL SINGLE POINT ENERGY      -897.315544615175
Dispersion correction            ... Starting D4
                    ***********************HURRAY********************

CARTESIAN COORDINATES (ANGSTROEM)
---------------------------------
  C      3.290191    0.076308   -0.241161
  H      3.926967    1.004229   -2.101786
  H      2.959877    2.067878   -1.068502
  H      4.634753    1.673319   -0.613521
  O      3.996255   -0.317520    0.697739
  C      3.720654    1.280527   -1.061790
  N      2.105494   -0.536481   -0.551551
  C      1.763261   -1.783976    0.129243
  H      1.682693   -2.586107   -0.611448
  H      2.587320   -2.019572    0.805881
  C      1.312456   -0.218205   -1.755659
  H      1.418428   -1.049087   -2.466590
  H      1.748296    0.663920   -2.223953
  C     -0.138760    0.001714   -1.465279
  C     -1.166738   -0.828936   -1.840233
  H     -1.131783   -1.750904   -2.404408
  N     -2.361459   -0.348377   -1.357654
  H     -3.264382   -0.777095   -1.505297
  C     -2.131043    0.815189   -0.653468
  C     -0.731730    1.071382   -0.705342
  C     -0.228388    2.215310   -0.062900
  H      0.833772    2.441571   -0.090544
  C     -1.110133    3.054746    0.610514
  H     -0.730900    3.941731    1.111479
  C     -3.022436    1.654815    0.021735
  H     -4.086833    1.437523    0.049765
  C     -2.492949    2.775425    0.655536
  H     -3.156807    3.449409    1.190592
  C      0.425789   -1.808094    0.886968
  O     -0.389451   -2.701752    0.621104
  N      0.194283   -0.867796    1.838269
  C      1.175570    0.078649    2.349935
  H      0.956180    1.093676    1.998884
  H      1.126496    0.073532    3.445893
  H      2.187319   -0.192001    2.054526
  C     -1.132827   -0.757181    2.429513
  H     -1.495719    0.271311    2.321614
  H     -1.808576   -1.439212    1.916452
  H     -1.102141   -1.009868    3.497444

 Multiplicity           Mult            ....    1
 Number of Electrons    NEL             ....  146
 Basis Dimension        Dim             ....  318

ORBITAL ENERGIES
----------------

  NO   OCC          E(Eh)            E(eV)
   0   2.0000     -19.109518      -519.9964
   1   2.0000     -19.099449      -519.7224
   2   2.0000     -14.363239      -390.8436
   3   2.0000     -14.359119      -390.7315
   4   2.0000     -14.351586      -390.5265
   5   2.0000     -10.283253      -279.8215
   6   2.0000     -10.274397      -279.5806
   7   2.0000     -10.213919      -277.9349
   8   2.0000     -10.207656      -277.7644
   9   2.0000     -10.207369      -277.7566
  10   2.0000     -10.205832      -277.7148
  11   2.0000     -10.191902      -277.3357
  12   2.0000     -10.190794      -277.3056
  13   2.0000     -10.176607      -276.9195
  14   2.0000     -10.173804      -276.8433
  15   2.0000     -10.173054      -276.8229
  16   2.0000     -10.173035      -276.8223
  17   2.0000     -10.172756      -276.8148
  18   2.0000     -10.169573      -276.7282
  19   2.0000     -10.168021      -276.6859
  20   2.0000      -1.030630       -28.0449
  21   2.0000      -1.019715       -27.7478
  22   2.0000      -0.971344       -26.4316
  23   2.0000      -0.930766       -25.3274
  24   2.0000      -0.920123       -25.0378
  25   2.0000      -0.831933       -22.6380
  26   2.0000      -0.788401       -21.4535
  27   2.0000      -0.755287       -20.5524
  28   2.0000      -0.731051       -19.8929
  29   2.0000      -0.724841       -19.7239
  30   2.0000      -0.712929       -19.3998
  31   2.0000      -0.702909       -19.1271
  32   2.0000      -0.686098       -18.6697
  33   2.0000      -0.665712       -18.1150
  34   2.0000      -0.614629       -16.7249
  35   2.0000      -0.584786       -15.9128
  36   2.0000      -0.565863       -15.3979
  37   2.0000      -0.548045       -14.9131
  38   2.0000      -0.534042       -14.5320
  39   2.0000      -0.528358       -14.3774
  40   2.0000      -0.506301       -13.7771
  41   2.0000      -0.485838       -13.2203
  42   2.0000      -0.476394       -12.9633
  43   2.0000      -0.467322       -12.7165
  44   2.0000      -0.462903       -12.5962
  45   2.0000      -0.458515       -12.4768
  46   2.0000      -0.451520       -12.2865
  47   2.0000      -0.442378       -12.0377
  48   2.0000      -0.428353       -11.6561
  49   2.0000      -0.423307       -11.5188
  50   2.0000      -0.414001       -11.2656
  51   2.0000      -0.412729       -11.2309
  52   2.0000      -0.406504       -11.0615
  53   2.0000      -0.396482       -10.7888
  54   2.0000      -0.394619       -10.7381
  55   2.0000      -0.389631       -10.6024
  56   2.0000      -0.387752       -10.5513
  57   2.0000      -0.384679       -10.4676
  58   2.0000      -0.383287       -10.4298
  59   2.0000      -0.373977       -10.1764
  60   2.0000      -0.370333       -10.0773
  61   2.0000      -0.353478        -9.6186
  62   2.0000      -0.347420        -9.4538
  63   2.0000      -0.343352        -9.3431
  64   2.0000      -0.328202        -8.9308
  65   2.0000      -0.326068        -8.8727
  66   2.0000      -0.270027        -7.3478
  67   2.0000      -0.256014        -6.9665
  68   2.0000      -0.251728        -6.8499
  69   2.0000      -0.235684        -6.4133
  70   2.0000      -0.231452        -6.2981
  71   2.0000      -0.214795        -5.8449
  72   2.0000      -0.198425        -5.3994
  73   0.0000      -0.005962        -0.1622
  74   0.0000       0.021862         0.5949
  75   0.0000       0.026059         0.7091
  76   0.0000       0.032183         0.8757
  77   0.0000       0.071450         1.9442

MULLIKEN ATOMIC CHARGES
-----------------------
   0 C :    0.541553
   1 H :    0.197570
   2 H :    0.204639
   3 H :    0.180080
   4 O :   -0.538819
   5 C :   -0.573936
   6 N :   -0.361772
   7 C :   -0.259581
   8 H :    0.175592
   9 H :    0.203825
  10 C :   -0.248996
  11 H :    0.174369
  12 H :    0.188732
  13 C :    0.030664
  14 C :   -0.000778
  15 H :    0.181466
  16 N :   -0.635184
  17 H :    0.372109
  18 C :    0.270842
  19 C :    0.086590
  20 C :   -0.233468
  21 H :    0.155379
  22 C :   -0.170152
  23 H :    0.138370
  24 C :   -0.188301
  25 H :    0.153954
  26 C :   -0.176502
  27 H :    0.141999
  28 C :    0.543016
  29 O :   -0.555860
  30 N :   -0.352033
  31 C :   -0.352509
  32 H :    0.168854
  33 H :    0.165011
  34 H :    0.190452
  35 C :   -0.330375
  36 H :    0.171535
  37 H :    0.177939
  38 H :    0.163725
Sum of atomic charges:    0.0000000

LOEWDIN ATOMIC CHARGES
----------------------
   0 C :    0.116615
   1 H :    0.157144
   2 H :    0.154959
   3 H :    0.149594
   4 O :   -0.339941
   5 C :   -0.395019
   6 N :   -0.071043
   7 C :   -0.181802
   8 H :    0.144424
   9 H :    0.162701
  10 C :   -0.146568
  11 H :    0.139656
  12 H :    0.151352
  13 C :   -0.105416
  14 C :   -0.085120
  15 H :    0.151831
  16 N :   -0.125199
  17 H :    0.284204
  18 C :    0.010225
  19 C :   -0.042006
  20 C :   -0.146541
  21 H :    0.138981
  22 C :   -0.164166
  23 H :    0.135247
  24 C :   -0.162141
  25 H :    0.143631
  26 C :   -0.153924
  27 H :    0.136936
  28 C :    0.100095
  29 O :   -0.347196
  30 N :   -0.063959
  31 C :   -0.289131
  32 H :    0.132333
  33 H :    0.132426
  34 H :    0.147093
  35 C :   -0.279635
  36 H :    0.135644
  37 H :    0.144147
  38 H :    0.129569

  Mayer bond orders larger than 0.100000
B(  0-C ,  4-O ) :   1.7249 B(  0-C ,  5-C ) :   0.9931 B(  0-C ,  6-N ) :   1.1650
B(  1-H ,  5-C ) :   0.9207 B(  2-H ,  5-C ) :   0.9138 B(  3-H ,  5-C ) :   0.9371
B(  6-N ,  7-C ) :   0.9436 B(  6-N , 10-C ) :   0.9337 B(  7-C ,  8-H ) :   0.9160
B(  7-C ,  9-H ) :   0.8906 B(  7-C , 28-C ) :   0.9411 B( 10-C , 11-H ) :   0.9193
B( 10-C , 12-H ) :   0.9078 B( 10-C , 13-C ) :   0.9901 B( 13-C , 14-C ) :   1.5377
B( 13-C , 19-C ) :   1.2522 B( 14-C , 15-H ) :   0.9192 B( 14-C , 16-N ) :   1.1119
B( 16-N , 17-H ) :   0.8160 B( 16-N , 18-C ) :   1.0170 B( 18-C , 19-C ) :   1.2851
B( 18-C , 24-C ) :   1.3602 B( 19-C , 20-C ) :   1.3576 B( 20-C , 21-H ) :   0.9108
B( 20-C , 22-C ) :   1.4617 B( 22-C , 23-H ) :   0.9300 B( 22-C , 26-C ) :   1.3780
B( 24-C , 25-H ) :   0.9190 B( 24-C , 26-C ) :   1.4669 B( 26-C , 27-H ) :   0.9287
B( 28-C , 29-O ) :   1.7415 B( 28-C , 30-N ) :   1.2009 B( 30-N , 31-C ) :   0.9545
B( 30-N , 35-C ) :   0.9505 B( 31-C , 32-H ) :   0.9164 B( 31-C , 33-H ) :   0.9346
B( 31-C , 34-H ) :   0.9028 B( 35-C , 36-H ) :   0.9292 B( 35-C , 37-H ) :   0.9276
B( 35-C , 38-H ) :   0.9365

Dispersion correction           -0.086868733
FINAL SINGLE POINT ENERGY      -897.315545048679

DIPOLE MOMENT
-------------
                                X             Y             Z
Electronic contribution:     -4.29162      -4.00268      -5.11828
Nuclear contribution   :      3.05783       5.08160       3.88477
                        -----------------------------------------
Total Dipole Moment    :     -1.23379       1.07892      -1.23351
                        -----------------------------------------
Magnitude (a.u.)       :      2.05131
Magnitude (Debye)      :      5.21401

Dispersion correction in the Hessian             ... Starting D4

VIBRATIONAL FREQUENCIES
-----------------------

Scaling factor for frequencies =  1.000000000  (already applied!)

   0:         0.00 cm**-1
   1:         0.00 cm**-1
   2:         0.00 cm**-1
   3:         0.00 cm**-1
   4:         0.00 cm**-1
   5:         0.00 cm**-1
   6:        22.97 cm**-1
   7:        45.52 cm**-1
   8:        63.31 cm**-1
   9:        75.44 cm**-1
  10:        94.70 cm**-1
  11:       111.43 cm**-1
  12:       114.82 cm**-1
  13:       130.94 cm**-1
  14:       168.98 cm**-1
  15:       171.81 cm**-1
  16:       188.66 cm**-1
  17:       206.62 cm**-1
  18:       215.79 cm**-1
  19:       233.26 cm**-1
  20:       252.08 cm**-1
  21:       288.11 cm**-1
  22:       313.28 cm**-1
  23:       329.76 cm**-1
  24:       368.18 cm**-1
  25:       378.43 cm**-1
  26:       409.78 cm**-1
  27:       431.48 cm**-1
  28:       439.58 cm**-1
  29:       449.06 cm**-1
  30:       462.45 cm**-1
  31:       503.68 cm**-1
  32:       548.30 cm**-1
  33:       575.75 cm**-1
  34:       589.36 cm**-1
  35:       598.71 cm**-1
  36:       602.73 cm**-1
  37:       617.28 cm**-1
  38:       655.43 cm**-1
  39:       687.90 cm**-1
  40:       747.30 cm**-1
  41:       754.34 cm**-1
  42:       758.26 cm**-1
  43:       774.63 cm**-1
  44:       784.11 cm**-1
  45:       815.74 cm**-1
  46:       843.69 cm**-1
  47:       864.16 cm**-1
  48:       890.69 cm**-1
  49:       929.83 cm**-1
  50:       945.42 cm**-1
  51:       969.73 cm**-1
  52:       969.91 cm**-1
  53:      1001.64 cm**-1
  54:      1011.58 cm**-1
  55:      1040.77 cm**-1
  56:      1061.99 cm**-1
  57:      1090.58 cm**-1
  58:      1092.20 cm**-1
  59:      1103.85 cm**-1
  60:      1117.14 cm**-1
  61:      1138.91 cm**-1
  62:      1153.27 cm**-1
  63:      1175.37 cm**-1
  64:      1180.32 cm**-1
  65:      1184.70 cm**-1
  66:      1221.74 cm**-1
  67:      1255.30 cm**-1
  68:      1273.05 cm**-1
  69:      1289.91 cm**-1
  70:      1292.29 cm**-1
  71:      1300.34 cm**-1
  72:      1342.24 cm**-1
  73:      1373.19 cm**-1
  74:      1387.20 cm**-1
  75:      1393.92 cm**-1
  76:      1409.83 cm**-1
  77:      1416.74 cm**-1
  78:      1441.29 cm**-1
  79:      1459.47 cm**-1
  80:      1466.66 cm**-1
  81:      1468.66 cm**-1
  82:      1485.49 cm**-1
  83:      1487.47 cm**-1
  84:      1496.93 cm**-1
  85:      1499.26 cm**-1
  86:      1499.71 cm**-1
  87:      1506.85 cm**-1
  88:      1514.14 cm**-1
  89:      1522.42 cm**-1
  90:      1527.72 cm**-1
  91:      1536.61 cm**-1
  92:      1558.43 cm**-1
  93:      1605.46 cm**-1
  94:      1631.23 cm**-1
  95:      1676.57 cm**-1
  96:      1698.84 cm**-1
  97:      1709.28 cm**-1
  98:      3040.22 cm**-1
  99:      3040.30 cm**-1
 100:      3047.03 cm**-1
 101:      3065.92 cm**-1
 102:      3079.88 cm**-1
 103:      3098.14 cm**-1
 104:      3101.46 cm**-1
 105:      3130.64 cm**-1
 106:      3146.28 cm**-1
 107:      3159.62 cm**-1
 108:      3169.51 cm**-1
 109:      3184.16 cm**-1
 110:      3191.06 cm**-1
 111:      3194.56 cm**-1
 112:      3195.02 cm**-1
 113:      3205.39 cm**-1
 114:      3212.21 cm**-1
 115:      3277.00 cm**-1
 116:      3647.01 cm**-1

IR SPECTRUM
-----------

 Mode   freq       eps      Int      T**2         TX        TY        TZ
       cm**-1   L/(mol*cm) km/mol    a.u.
----------------------------------------------------------------------------
  6:     22.97   0.000335    1.69  0.004555  (-0.057731 -0.021486  0.027582)
  7:     45.52   0.000347    1.76  0.002381  (-0.000089  0.045247  0.018281)
  8:     63.31   0.000114    0.58  0.000563  ( 0.011055 -0.020797 -0.002825)
  9:     75.44   0.000483    2.44  0.001999  ( 0.028989 -0.031151  0.013711)
 10:     94.70   0.000114    0.57  0.000374  (-0.011247  0.010924 -0.011330)
 11:    111.43   0.000333    1.68  0.000932  ( 0.026183 -0.001019 -0.015656)
 12:    114.82   0.002371   11.98  0.006445  ( 0.022583 -0.065826  0.040022)
 13:    130.94   0.002709   13.69  0.006455  ( 0.041238 -0.010561 -0.068142)
 14:    168.98   0.000898    4.54  0.001658  (-0.004413 -0.033048  0.023370)
 15:    171.81   0.000331    1.67  0.000602  ( 0.000044 -0.010175  0.022322)
 16:    188.66   0.000384    1.94  0.000635  (-0.005420 -0.023294 -0.007956)
 17:    206.62   0.000300    1.51  0.000453  ( 0.013680  0.004320 -0.015715)
 18:    215.79   0.000379    1.92  0.000548  (-0.019360  0.010398 -0.008088)
 19:    233.26   0.003481   17.59  0.004657  ( 0.009238 -0.040322  0.054275)
 20:    252.08   0.001033    5.22  0.001279  (-0.010470  0.026168 -0.022011)
 21:    288.11   0.001052    5.32  0.001139  (-0.001242  0.016313 -0.029525)
 22:    313.28   0.001656    8.37  0.001650  ( 0.034208  0.018839 -0.011159)
 23:    329.76   0.001290    6.52  0.001220  (-0.018619  0.026306  0.013484)
 24:    368.18   0.001994   10.07  0.001690  ( 0.028124 -0.025239  0.016180)
 25:    378.43   0.003844   19.42  0.003170  ( 0.017032 -0.024627 -0.047676)
 26:    409.78   0.002060   10.41  0.001569  (-0.033164  0.015048 -0.015575)
 27:    431.48   0.021147  106.87  0.015294  ( 0.020004 -0.070379  0.099702)
 28:    439.58   0.001753    8.86  0.001245  ( 0.034731  0.003042  0.005400)
 29:    449.06   0.008104   40.96  0.005632  (-0.008582  0.045479 -0.059074)
 30:    462.45   0.001962    9.92  0.001324  ( 0.033435  0.001167 -0.014315)
 31:    503.68   0.008239   41.64  0.005105  ( 0.017220  0.046642 -0.051312)
 32:    548.30   0.000715    3.61  0.000407  (-0.018871  0.007059 -0.000895)
 33:    575.75   0.005494   27.76  0.002978  ( 0.051238 -0.003845 -0.018378)
 34:    589.36   0.001636    8.27  0.000866  (-0.008465  0.023224 -0.015974)
 35:    598.71   0.004169   21.07  0.002173  ( 0.046084 -0.000675  0.006989)
 36:    602.73   0.001309    6.62  0.000678  ( 0.014910 -0.009419  0.019156)
 37:    617.28   0.002958   14.95  0.001495  ( 0.001317  0.026057  0.028541)
 38:    655.43   0.002582   13.05  0.001229  (-0.001845  0.029518  0.018830)
 39:    687.90   0.001193    6.03  0.000541  (-0.007859 -0.003761 -0.021567)
 40:    747.30   0.001884    9.52  0.000787  (-0.001816 -0.007019  0.027095)
 41:    754.34   0.005507   27.83  0.002278  ( 0.037740 -0.029173 -0.001733)
 42:    758.26   0.017176   86.80  0.007069  (-0.000504  0.039007 -0.074478)
 43:    774.63   0.001221    6.17  0.000492  ( 0.006841 -0.021068 -0.001127)
 44:    784.11   0.000624    3.15  0.000248  (-0.011432  0.004526  0.009864)
 45:    815.74   0.008033   40.60  0.003073  (-0.012483 -0.009126 -0.053236)
 46:    843.69   0.002668   13.48  0.000987  (-0.016484  0.021953  0.015269)
 47:    864.16   0.000353    1.78  0.000127  (-0.003092  0.001399  0.010767)
 48:    890.69   0.000539    2.73  0.000189  (-0.011684  0.005501  0.004712)
 49:    929.83   0.000643    3.25  0.000216  ( 0.001079  0.007285 -0.012709)
 50:    945.42   0.004126   20.85  0.001362  (-0.031012  0.000962 -0.019984)
 51:    969.73   0.004031   20.37  0.001297  (-0.030075 -0.019580  0.003071)
 52:    969.91   0.000829    4.19  0.000267  (-0.013019 -0.009835 -0.000688)
 53:   1001.64   0.010464   52.88  0.003260  ( 0.049104 -0.024243 -0.016164)
 54:   1011.58   0.008426   42.58  0.002599  (-0.038988 -0.013520 -0.029943)
 55:   1040.77   0.003196   16.15  0.000958  (-0.010015  0.023136  0.017965)
 56:   1061.99   0.001619    8.18  0.000476  ( 0.013795 -0.011091 -0.012739)
 57:   1090.58   0.006077   30.71  0.001739  (-0.029211 -0.026514 -0.013515)
 58:   1092.20   0.001657    8.37  0.000474  (-0.019854 -0.008338 -0.003128)
 59:   1103.85   0.002251   11.38  0.000636  (-0.003174  0.021020  0.013584)
 60:   1117.14   0.012638   63.87  0.003530  (-0.043058 -0.034772 -0.021617)
 61:   1138.91   0.000223    1.12  0.000061  ( 0.001279 -0.007013  0.003188)
 62:   1153.27   0.000856    4.33  0.000232  ( 0.002602  0.004601  0.014275)
 63:   1175.37   0.009527   48.14  0.002529  ( 0.004325  0.023496  0.044256)
 64:   1180.32   0.004685   23.67  0.001239  (-0.002329 -0.019060 -0.029493)
 65:   1184.70   0.000034    0.17  0.000009  (-0.002293 -0.000678  0.001788)
 66:   1221.74   0.008470   42.81  0.002164  (-0.025440  0.037867  0.009081)
 67:   1255.30   0.007090   35.83  0.001762  ( 0.039712  0.010304  0.008904)
 68:   1273.05   0.002352   11.89  0.000576  ( 0.004897  0.019873  0.012553)
 69:   1289.91   0.021008  106.17  0.005082  (-0.065059 -0.003042  0.028993)
 70:   1292.29   0.040890  206.64  0.009874  (-0.080003 -0.058861 -0.002999)
 71:   1300.34   0.007079   35.77  0.001699  (-0.006393 -0.035506  0.019931)
 72:   1342.24   0.001259    6.36  0.000293  (-0.001608 -0.016135 -0.005456)
 73:   1373.19   0.002928   14.80  0.000665  ( 0.021229  0.011172  0.009484)
 74:   1387.20   0.011058   55.88  0.002488  ( 0.034262 -0.027975 -0.023045)
 75:   1393.92   0.010555   53.34  0.002363  ( 0.036287  0.027889  0.016381)
 76:   1409.83   0.005092   25.73  0.001127  ( 0.011632 -0.027925  0.014558)
 77:   1416.74   0.007598   38.40  0.001674  ( 0.036121 -0.017541  0.007826)
 78:   1441.29   0.012346   62.39  0.002673  ( 0.013876 -0.029292 -0.040281)
 79:   1459.47   0.021627  109.29  0.004624  (-0.055182  0.015267  0.036690)
 80:   1466.66   0.012968   65.54  0.002759  (-0.016110  0.040925  0.028721)
 81:   1468.66   0.052016  262.87  0.011052  (-0.099207 -0.032747 -0.011745)
 82:   1485.49   0.004602   23.26  0.000967  (-0.013687 -0.025008  0.012412)
 83:   1487.47   0.004466   22.57  0.000937  (-0.007031 -0.002276 -0.029703)
 84:   1496.93   0.006061   30.63  0.001264  ( 0.026525  0.020555  0.011724)
 85:   1499.26   0.002583   13.06  0.000538  ( 0.006002 -0.016517 -0.015130)
 86:   1499.71   0.009709   49.06  0.002020  ( 0.008655  0.043316  0.008307)
 87:   1506.85   0.003686   18.63  0.000763  ( 0.000372 -0.026485  0.007860)
 88:   1514.14   0.000845    4.27  0.000174  ( 0.010129  0.003052  0.007884)
 89:   1522.42   0.001098    5.55  0.000225  ( 0.006781  0.004470 -0.012616)
 90:   1527.72   0.005426   27.42  0.001108  (-0.009995  0.013158 -0.028901)
 91:   1536.61   0.000898    4.54  0.000182  ( 0.000841  0.013251  0.002457)
 92:   1558.43   0.015559   78.63  0.003116  (-0.031539  0.018971  0.041964)
 93:   1605.46   0.008402   42.46  0.001633  ( 0.038864 -0.003499  0.010506)
 94:   1631.23   0.000790    3.99  0.000151  (-0.003886 -0.005067 -0.010505)
 95:   1676.57   0.006690   33.81  0.001245  ( 0.023747  0.013587  0.022288)
 96:   1698.84   0.105629  533.81  0.019403  (-0.102206  0.008668 -0.094245)
 97:   1709.28   0.113776  574.98  0.020772  (-0.052514 -0.118562 -0.062908)
 98:   3040.22   0.017574   88.81  0.001804  ( 0.012253 -0.016289 -0.037262)
 99:   3040.30   0.004416   22.32  0.000453  (-0.017373 -0.011643  0.003989)
100:   3047.03   0.021412  108.21  0.002193  (-0.000270 -0.021232 -0.041738)
101:   3065.92   0.000741    3.74  0.000075  (-0.000500 -0.005918  0.006336)
102:   3079.88   0.007676   38.79  0.000778  (-0.006174 -0.026052 -0.007805)
103:   3098.14   0.012249   61.90  0.001234  (-0.005331  0.025712 -0.023329)
104:   3101.46   0.001070    5.41  0.000108  ( 0.006487 -0.007007  0.004054)
105:   3130.64   0.001555    7.86  0.000155  ( 0.005157 -0.009155 -0.006675)
106:   3146.28   0.002020   10.21  0.000200  (-0.010415 -0.000027  0.009583)
107:   3159.62   0.004230   21.38  0.000418  ( 0.014596  0.012916 -0.006157)
108:   3169.51   0.002649   13.39  0.000261  (-0.013159 -0.000388 -0.009352)
109:   3184.16   0.000288    1.46  0.000028  ( 0.003612  0.003724  0.001150)
110:   3191.06   0.001066    5.39  0.000104  (-0.009147 -0.004275 -0.001527)
111:   3194.56   0.003282   16.59  0.000321  (-0.000493 -0.016470 -0.007009)
112:   3195.02   0.001112    5.62  0.000109  (-0.000488 -0.001264 -0.010335)
113:   3205.39   0.010253   51.81  0.000998  (-0.031295  0.000521  0.004301)
114:   3212.21   0.005426   27.42  0.000527  (-0.004843 -0.020071 -0.010041)
115:   3277.00   0.000076    0.38  0.000007  ( 0.001823 -0.001046 -0.001680)
116:   3647.01   0.036379  183.85  0.003113  ( 0.046183  0.028123  0.013749)

--------------------------
THERMOCHEMISTRY AT 298.15K
--------------------------

Temperature         ... 298.15 K
Pressure            ... 1.00 atm
Total Mass          ... 273.34 AMU

Throughout the following assumptions are being made:
  (1) The electronic state is orbitally nondegenerate
  (2) There are no thermally accessible electronically excited states
  (3) Hindered rotations indicated by low frequency modes are not
      treated as such but are treated as vibrations and this may
      cause some error
  (4) All equations used are the standard statistical mechanics
      equations for an ideal gas
  (5) All vibrations are strictly harmonic

freq.      22.97  E(vib)   ...       0.56
freq.      45.52  E(vib)   ...       0.53
freq.      63.31  E(vib)   ...       0.51
freq.      75.44  E(vib)   ...       0.49
freq.      94.70  E(vib)   ...       0.47
freq.     111.43  E(vib)   ...       0.45
freq.     114.82  E(vib)   ...       0.44
freq.     130.94  E(vib)   ...       0.42
freq.     168.98  E(vib)   ...       0.38
freq.     171.81  E(vib)   ...       0.38
freq.     188.66  E(vib)   ...       0.36
freq.     206.62  E(vib)   ...       0.35
freq.     215.79  E(vib)   ...       0.34
freq.     233.26  E(vib)   ...       0.32
freq.     252.08  E(vib)   ...       0.30
freq.     288.11  E(vib)   ...       0.27
freq.     313.28  E(vib)   ...       0.25
freq.     329.76  E(vib)   ...       0.24
freq.     368.18  E(vib)   ...       0.21
freq.     378.43  E(vib)   ...       0.21
freq.     409.78  E(vib)   ...       0.19
freq.     431.48  E(vib)   ...       0.18
freq.     439.58  E(vib)   ...       0.17
freq.     449.06  E(vib)   ...       0.17
freq.     462.45  E(vib)   ...       0.16
freq.     503.68  E(vib)   ...       0.14
freq.     548.30  E(vib)   ...       0.12
freq.     575.75  E(vib)   ...       0.11
freq.     589.36  E(vib)   ...       0.10
freq.     598.71  E(vib)   ...       0.10
freq.     602.73  E(vib)   ...       0.10
freq.     617.28  E(vib)   ...       0.09
freq.     655.43  E(vib)   ...       0.08
freq.     687.90  E(vib)   ...       0.07
freq.     747.30  E(vib)   ...       0.06
freq.     754.34  E(vib)   ...       0.06
freq.     758.26  E(vib)   ...       0.06
freq.     774.63  E(vib)   ...       0.05
freq.     784.11  E(vib)   ...       0.05
freq.     815.74  E(vib)   ...       0.05
freq.     843.69  E(vib)   ...       0.04
freq.     864.16  E(vib)   ...       0.04
freq.     890.69  E(vib)   ...       0.04
freq.     929.83  E(vib)   ...       0.03
freq.     945.42  E(vib)   ...       0.03
freq.     969.73  E(vib)   ...       0.03
freq.     969.91  E(vib)   ...       0.03
freq.    1001.64  E(vib)   ...       0.02
freq.    1011.58  E(vib)   ...       0.02
freq.    1040.77  E(vib)   ...       0.02
freq.    1061.99  E(vib)   ...       0.02
freq.    1090.58  E(vib)   ...       0.02
freq.    1092.20  E(vib)   ...       0.02
freq.    1103.85  E(vib)   ...       0.02
freq.    1117.14  E(vib)   ...       0.01
freq.    1138.91  E(vib)   ...       0.01
freq.    1153.27  E(vib)   ...       0.01
freq.    1175.37  E(vib)   ...       0.01
freq.    1180.32  E(vib)   ...       0.01
freq.    1184.70  E(vib)   ...       0.01
freq.    1221.74  E(vib)   ...       0.01
freq.    1255.30  E(vib)   ...       0.01
freq.    1273.05  E(vib)   ...       0.01
freq.    1289.91  E(vib)   ...       0.01
freq.    1292.29  E(vib)   ...       0.01
freq.    1300.34  E(vib)   ...       0.01
freq.    1342.24  E(vib)   ...       0.01
freq.    1373.19  E(vib)   ...       0.01
freq.    1387.20  E(vib)   ...       0.00
freq.    1393.92  E(vib)   ...       0.00
freq.    1409.83  E(vib)   ...       0.00
freq.    1416.74  E(vib)   ...       0.00
freq.    1441.29  E(vib)   ...       0.00
freq.    1459.47  E(vib)   ...       0.00
freq.    1466.66  E(vib)   ...       0.00
freq.    1468.66  E(vib)   ...       0.00
freq.    1485.49  E(vib)   ...       0.00
freq.    1487.47  E(vib)   ...       0.00
freq.    1496.93  E(vib)   ...       0.00
freq.    1499.26  E(vib)   ...       0.00
freq.    1499.71  E(vib)   ...       0.00
freq.    1506.85  E(vib)   ...       0.00
freq.    1514.14  E(vib)   ...       0.00
freq.    1522.42  E(vib)   ...       0.00
freq.    1527.72  E(vib)   ...       0.00
freq.    1536.61  E(vib)   ...       0.00
freq.    1558.43  E(vib)   ...       0.00
freq.    1605.46  E(vib)   ...       0.00
freq.    1631.23  E(vib)   ...       0.00
freq.    1676.57  E(vib)   ...       0.00
freq.    1698.84  E(vib)   ...       0.00
freq.    1709.28  E(vib)   ...       0.00
freq.    3040.22  E(vib)   ...       0.00
freq.    3040.30  E(vib)   ...       0.00
freq.    3047.03  E(vib)   ...       0.00
freq.    3065.92  E(vib)   ...       0.00
freq.    3079.88  E(vib)   ...       0.00
freq.    3098.14  E(vib)   ...       0.00
freq.    3101.46  E(vib)   ...       0.00
freq.    3130.64  E(vib)   ...       0.00
freq.    3146.28  E(vib)   ...       0.00
freq.    3159.62  E(vib)   ...       0.00
freq.    3169.51  E(vib)   ...       0.00
freq.    3184.16  E(vib)   ...       0.00
freq.    3191.06  E(vib)   ...       0.00
freq.    3194.56  E(vib)   ...       0.00
freq.    3195.02  E(vib)   ...       0.00
freq.    3205.39  E(vib)   ...       0.00
freq.    3212.21  E(vib)   ...       0.00
freq.    3277.00  E(vib)   ...       0.00
freq.    3647.01  E(vib)   ...       0.00

------------
INNER ENERGY
------------

The inner energy is: U= E(el) + E(ZPE) + E(vib) + E(rot) + E(trans)
    E(el)   - is the total energy from the electronic structure calculation
              = E(kin-el) + E(nuc-el) + E(el-el) + E(nuc-nuc)
    E(ZPE)  - the the zero temperature vibrational energy from the frequency calculation
    E(vib)  - the the finite temperature correction to E(ZPE) due to population
              of excited vibrational states
    E(rot)  - is the rotational thermal energy
    E(trans)- is the translational thermal energy

Summary of contributions to the inner energy U:
Electronic energy                ...   -897.31554505 Eh
Zero point energy                ...      0.32732562 Eh     205.40 kcal/mol
Thermal vibrational correction   ...      0.01620510 Eh      10.17 kcal/mol
Thermal rotational correction    ...      0.00141627 Eh       0.89 kcal/mol
Thermal translational correction ...      0.00141627 Eh       0.89 kcal/mol
-----------------------------------------------------------------------
Total thermal energy                   -896.96918178 Eh

Summary of corrections to the electronic energy:
(perhaps to be used in another calculation)
Total thermal correction                  0.01903765 Eh      11.95 kcal/mol
Non-thermal (ZPE) correction              0.32732562 Eh     205.40 kcal/mol
-----------------------------------------------------------------------
Total correction                          0.34636327 Eh     217.35 kcal/mol

--------

Rotational constants in cm-1:     0.016769     0.010115     0.009314

                             ****ORCA TERMINATED NORMALLY****
TOTAL RUN TIME: 0 days 0 hours 58 minutes 27 seconds 187 msec
