                         Program Version 5.0.4 -  RELEASE  -
|  1> ! OPT FREQ B3LYP 6-31G(d) D4 AUTOAUX
|  2>
|  3> %PAL NPROCS 4 END
|  4>
|  5> %maxcore 3375
|  6>
|  7> *xyzfile 0 1 /users/fjb15167/WWenergy/structures/Nv.xyz
|  8>
|  9>                          ****END OF INPUT****
 Total Charge           Charge          ....    0
 Multiplicity           Mult            ....    1
 Number of Electrons    NEL             ....  102
Dispersion correction           -0.052466143
FINAL SINGLE POINT ENERGY      -613.434263384564
Dispersion correction            ... Starting D4
Dispersion correction           -0.052080219
FINAL SINGLE POINT ENERGY      -613.434683316413
Dispersion correction            ... Starting D4
Dispersion correction           -0.052095938
FINAL SINGLE POINT ENERGY      -613.434720063592
Dispersion correction            ... Starting D4
FINAL SINGLE POINT ENERGY      -613.434791627193
FINAL SINGLE POINT ENERGY      -613.434795025359
FINAL SINGLE POINT ENERGY      -613.434801768170
FINAL SINGLE POINT ENERGY      -613.434806445417
FINAL SINGLE POINT ENERGY      -613.434808238799
FINAL SINGLE POINT ENERGY      -613.434810812258
Dispersion correction           -0.052026687
FINAL SINGLE POINT ENERGY      -613.434813044098
Dispersion correction            ... Starting D4
Dispersion correction           -0.051993891
FINAL SINGLE POINT ENERGY      -613.434815323568
Dispersion correction            ... Starting D4
                    ***********************HURRAY********************

CARTESIAN COORDINATES (ANGSTROEM)
---------------------------------
  C     -2.796417    1.131776    0.740724
  H     -2.729479    0.417050    1.562026
  H     -3.665998    0.866918    0.128838
  H     -2.956288    2.134356    1.141095
  C     -1.554270    1.195634   -0.133763
  O     -1.190511    2.288827   -0.573898
  N     -0.877872    0.038610   -0.436505
  C      0.259153    0.139683   -1.357331
  H      0.082669   -0.502772   -2.225433
  H      0.323863    1.174587   -1.690336
  C      1.557117   -0.384953   -0.727492
  N      2.205733    0.401446    0.184430
  O      1.954949   -1.510252   -1.032321
  C      1.779824    1.718814    0.631713
  H      1.514914    1.690127    1.698510
  H      2.604423    2.433816    0.509775
  H      0.916635    2.083943    0.077329
  C      3.391798   -0.126640    0.842905
  H      3.214898   -0.237495    1.921967
  H      3.624656   -1.098032    0.408781
  H      4.238504    0.557390    0.702216
  C     -1.164744   -1.336852    0.044948
  C     -2.579663   -1.834816   -0.278913
  C     -0.769160   -1.539269    1.514852
  H     -0.479496   -1.956454   -0.539780
  H     -2.839228   -1.613003   -1.319861
  H     -2.614655   -2.922093   -0.145877
  H     -3.346341   -1.402390    0.368789
  H      0.268408   -1.231729    1.676424
  H     -1.405302   -0.974442    2.203883
  H     -0.854120   -2.599784    1.778303

 Multiplicity           Mult            ....    1
 Number of Electrons    NEL             ....  102
 Basis Dimension        Dim             ....  218

ORBITAL ENERGIES
----------------

  NO   OCC          E(Eh)            E(eV)
   0   2.0000     -19.103429      -519.8307
   1   2.0000     -19.100781      -519.7587
   2   2.0000     -14.358540      -390.7157
   3   2.0000     -14.357250      -390.6806
   4   2.0000     -10.281292      -279.7682
   5   2.0000     -10.274589      -279.5858
   6   2.0000     -10.225851      -278.2596
   7   2.0000     -10.209428      -277.8127
   8   2.0000     -10.202748      -277.6309
   9   2.0000     -10.200109      -277.5591
  10   2.0000     -10.179980      -277.0113
  11   2.0000     -10.176120      -276.9063
  12   2.0000     -10.174806      -276.8706
  13   2.0000      -1.029823       -28.0229
  14   2.0000      -1.022270       -27.8174
  15   2.0000      -0.930414       -25.3179
  16   2.0000      -0.925453       -25.1829
  17   2.0000      -0.786220       -21.3941
  18   2.0000      -0.753501       -20.5038
  19   2.0000      -0.721198       -19.6248
  20   2.0000      -0.707298       -19.2466
  21   2.0000      -0.696043       -18.9403
  22   2.0000      -0.671358       -18.2686
  23   2.0000      -0.626900       -17.0588
  24   2.0000      -0.545313       -14.8387
  25   2.0000      -0.526658       -14.3311
  26   2.0000      -0.504470       -13.7273
  27   2.0000      -0.491948       -13.3866
  28   2.0000      -0.481278       -13.0962
  29   2.0000      -0.465230       -12.6595
  30   2.0000      -0.456397       -12.4192
  31   2.0000      -0.450304       -12.2534
  32   2.0000      -0.435876       -11.8608
  33   2.0000      -0.427684       -11.6379
  34   2.0000      -0.412933       -11.2365
  35   2.0000      -0.409582       -11.1453
  36   2.0000      -0.398560       -10.8454
  37   2.0000      -0.397235       -10.8093
  38   2.0000      -0.396443       -10.7877
  39   2.0000      -0.392041       -10.6680
  40   2.0000      -0.389829       -10.6078
  41   2.0000      -0.374290       -10.1850
  42   2.0000      -0.370990       -10.0952
  43   2.0000      -0.358185        -9.7467
  44   2.0000      -0.349573        -9.5124
  45   2.0000      -0.344353        -9.3703
  46   2.0000      -0.339155        -9.2289
  47   2.0000      -0.253188        -6.8896
  48   2.0000      -0.246113        -6.6971
  49   2.0000      -0.234856        -6.3908
  50   2.0000      -0.230344        -6.2680
  51   0.0000       0.017677         0.4810
  52   0.0000       0.032113         0.8738
  53   0.0000       0.073618         2.0032
  54   0.0000       0.094258         2.5649
  55   0.0000       0.106579         2.9002

MULLIKEN ATOMIC CHARGES
-----------------------
   0 C :   -0.544439
   1 H :    0.162653
   2 H :    0.180595
   3 H :    0.184341
   4 C :    0.528280
   5 O :   -0.484353
   6 N :   -0.385787
   7 C :   -0.256284
   8 H :    0.173656
   9 H :    0.203194
  10 C :    0.524658
  11 N :   -0.367853
  12 O :   -0.484360
  13 C :   -0.349270
  14 H :    0.148792
  15 H :    0.152998
  16 H :    0.218289
  17 C :   -0.322284
  18 H :    0.148089
  19 H :    0.202749
  20 H :    0.152379
  21 C :    0.017383
  22 C :   -0.455580
  23 C :   -0.453007
  24 H :    0.181704
  25 H :    0.156189
  26 H :    0.153683
  27 H :    0.149865
  28 H :    0.164514
  29 H :    0.147379
  30 H :    0.151828
Sum of atomic charges:   -0.0000000

LOEWDIN ATOMIC CHARGES
----------------------
   0 C :   -0.388418
   1 H :    0.134455
   2 H :    0.150447
   3 H :    0.152009
   4 C :    0.111470
   5 O :   -0.295336
   6 N :   -0.077423
   7 C :   -0.180428
   8 H :    0.140412
   9 H :    0.158341
  10 C :    0.092963
  11 N :   -0.080794
  12 O :   -0.290452
  13 C :   -0.287884
  14 H :    0.121545
  15 H :    0.124809
  16 H :    0.158025
  17 C :   -0.278861
  18 H :    0.121027
  19 H :    0.156167
  20 H :    0.124818
  21 C :   -0.063826
  22 C :   -0.366732
  23 C :   -0.365989
  24 H :    0.149011
  25 H :    0.132166
  26 H :    0.133123
  27 H :    0.126055
  28 H :    0.134978
  29 H :    0.122186
  30 H :    0.132139

  Mayer bond orders larger than 0.100000
B(  0-C ,  1-H ) :   0.9198 B(  0-C ,  2-H ) :   0.9282 B(  0-C ,  3-H ) :   0.9384
B(  0-C ,  4-C ) :   0.9832 B(  4-C ,  5-O ) :   1.7630 B(  4-C ,  6-N ) :   1.1427
B(  6-N ,  7-C ) :   0.9520 B(  6-N , 21-C ) :   0.9103 B(  7-C ,  8-H ) :   0.9202
B(  7-C ,  9-H ) :   0.8920 B(  7-C , 10-C ) :   0.9293 B( 10-C , 11-N ) :   1.1573
B( 10-C , 12-O ) :   1.7845 B( 11-N , 12-O ) :   0.1012 B( 11-N , 13-C ) :   0.9570
B( 11-N , 17-C ) :   0.9571 B( 13-C , 14-H ) :   0.9369 B( 13-C , 15-H ) :   0.9370
B( 13-C , 16-H ) :   0.8884 B( 17-C , 18-H ) :   0.9397 B( 17-C , 19-H ) :   0.9181
B( 17-C , 20-H ) :   0.9409 B( 21-C , 22-C ) :   1.0078 B( 21-C , 23-C ) :   1.0030
B( 21-C , 24-H ) :   0.9094 B( 22-C , 25-H ) :   0.9467 B( 22-C , 26-H ) :   0.9433
B( 22-C , 27-H ) :   0.9407 B( 23-C , 28-H ) :   0.9409 B( 23-C , 29-H ) :   0.9371
B( 23-C , 30-H ) :   0.9430

Dispersion correction           -0.051974536
FINAL SINGLE POINT ENERGY      -613.434817913508

DIPOLE MOMENT
-------------
                                X             Y             Z
Electronic contribution:      3.80157       3.04045      -7.28715
Nuclear contribution   :     -4.20761      -3.23885       8.22639
                        -----------------------------------------
Total Dipole Moment    :     -0.40604      -0.19840       0.93924
                        -----------------------------------------
Magnitude (a.u.)       :      1.04231
Magnitude (Debye)      :      2.64934

Dispersion correction in the Hessian             ... Starting D4

VIBRATIONAL FREQUENCIES
-----------------------

Scaling factor for frequencies =  1.000000000  (already applied!)

   0:         0.00 cm**-1
   1:         0.00 cm**-1
   2:         0.00 cm**-1
   3:         0.00 cm**-1
   4:         0.00 cm**-1
   5:         0.00 cm**-1
   6:        25.38 cm**-1
   7:        61.28 cm**-1
   8:        76.01 cm**-1
   9:        83.31 cm**-1
  10:       104.30 cm**-1
  11:       120.84 cm**-1
  12:       146.51 cm**-1
  13:       164.79 cm**-1
  14:       173.60 cm**-1
  15:       209.53 cm**-1
  16:       222.98 cm**-1
  17:       236.20 cm**-1
  18:       260.33 cm**-1
  19:       277.98 cm**-1
  20:       305.76 cm**-1
  21:       331.32 cm**-1
  22:       366.60 cm**-1
  23:       395.49 cm**-1
  24:       425.60 cm**-1
  25:       449.38 cm**-1
  26:       486.53 cm**-1
  27:       532.98 cm**-1
  28:       581.22 cm**-1
  29:       604.02 cm**-1
  30:       619.96 cm**-1
  31:       679.61 cm**-1
  32:       740.97 cm**-1
  33:       801.55 cm**-1
  34:       889.03 cm**-1
  35:       944.92 cm**-1
  36:       958.35 cm**-1
  37:       964.59 cm**-1
  38:      1005.87 cm**-1
  39:      1010.91 cm**-1
  40:      1065.20 cm**-1
  41:      1071.39 cm**-1
  42:      1096.44 cm**-1
  43:      1141.90 cm**-1
  44:      1149.00 cm**-1
  45:      1161.61 cm**-1
  46:      1166.62 cm**-1
  47:      1190.42 cm**-1
  48:      1202.74 cm**-1
  49:      1240.07 cm**-1
  50:      1282.86 cm**-1
  51:      1292.46 cm**-1
  52:      1372.39 cm**-1
  53:      1379.49 cm**-1
  54:      1384.98 cm**-1
  55:      1420.83 cm**-1
  56:      1430.66 cm**-1
  57:      1447.80 cm**-1
  58:      1450.03 cm**-1
  59:      1461.89 cm**-1
  60:      1494.28 cm**-1
  61:      1500.11 cm**-1
  62:      1510.96 cm**-1
  63:      1513.90 cm**-1
  64:      1517.97 cm**-1
  65:      1523.22 cm**-1
  66:      1526.20 cm**-1
  67:      1528.41 cm**-1
  68:      1535.99 cm**-1
  69:      1538.35 cm**-1
  70:      1542.71 cm**-1
  71:      1551.54 cm**-1
  72:      1570.30 cm**-1
  73:      1730.47 cm**-1
  74:      1745.58 cm**-1
  75:      3020.14 cm**-1
  76:      3029.84 cm**-1
  77:      3056.74 cm**-1
  78:      3061.08 cm**-1
  79:      3067.65 cm**-1
  80:      3074.70 cm**-1
  81:      3078.30 cm**-1
  82:      3085.13 cm**-1
  83:      3094.53 cm**-1
  84:      3120.22 cm**-1
  85:      3126.00 cm**-1
  86:      3137.80 cm**-1
  87:      3148.35 cm**-1
  88:      3149.78 cm**-1
  89:      3171.23 cm**-1
  90:      3181.71 cm**-1
  91:      3189.32 cm**-1
  92:      3191.42 cm**-1

IR SPECTRUM
-----------

 Mode   freq       eps      Int      T**2         TX        TY        TZ
       cm**-1   L/(mol*cm) km/mol    a.u.
----------------------------------------------------------------------------
  6:     25.38   0.000833    4.21  0.010240  (-0.030536 -0.028603  0.092140)
  7:     61.28   0.000002    0.01  0.000012  ( 0.000960  0.003284  0.000356)
  8:     76.01   0.000160    0.81  0.000656  (-0.022305  0.002455  0.012358)
  9:     83.31   0.000285    1.44  0.001066  (-0.018097  0.000576  0.027173)
 10:    104.30   0.000364    1.84  0.001090  (-0.031938 -0.003160  0.007768)
 11:    120.84   0.002110   10.66  0.005449  ( 0.068126  0.003915  0.028146)
 12:    146.51   0.000313    1.58  0.000668  ( 0.023253  0.006755 -0.009010)
 13:    164.79   0.000029    0.15  0.000056  (-0.000927  0.007158  0.001913)
 14:    173.60   0.000023    0.12  0.000041  (-0.005790  0.001452 -0.002355)
 15:    209.53   0.000246    1.24  0.000367  ( 0.007740  0.007671 -0.015748)
 16:    222.98   0.000262    1.32  0.000366  (-0.006823  0.000675 -0.017868)
 17:    236.20   0.000482    2.43  0.000637  (-0.023219  0.009095  0.003836)
 18:    260.33   0.000152    0.77  0.000182  ( 0.011281  0.004281 -0.006002)
 19:    277.98   0.000973    4.91  0.001092  ( 0.029926  0.010175 -0.009626)
 20:    305.76   0.000436    2.20  0.000445  (-0.010111 -0.007930  0.016723)
 21:    331.32   0.000546    2.76  0.000514  ( 0.020978 -0.008615 -0.000384)
 22:    366.60   0.002030   10.26  0.001728  ( 0.026444  0.026734  0.017730)
 23:    395.49   0.000798    4.03  0.000629  ( 0.004299 -0.012066  0.021569)
 24:    425.60   0.000576    2.91  0.000423  ( 0.018650  0.008579  0.001106)
 25:    449.38   0.001358    6.86  0.000943  ( 0.021237 -0.012374  0.018404)
 26:    486.53   0.000928    4.69  0.000595  ( 0.016575 -0.011784 -0.013476)
 27:    532.98   0.002715   13.72  0.001590  ( 0.028842 -0.011856 -0.024844)
 28:    581.22   0.001940    9.81  0.001042  ( 0.021137 -0.014770  0.019412)
 29:    604.02   0.000965    4.88  0.000499  ( 0.001099 -0.007778  0.020902)
 30:    619.96   0.002876   14.53  0.001448  ( 0.027842  0.021850  0.013963)
 31:    679.61   0.001210    6.12  0.000556  (-0.003545  0.018143  0.014632)
 32:    740.97   0.000230    1.16  0.000097  ( 0.006837 -0.003744  0.005996)
 33:    801.55   0.003024   15.28  0.001177  ( 0.026876  0.018169  0.011165)
 34:    889.03   0.000400    2.02  0.000141  ( 0.002657  0.009100  0.007118)
 35:    944.92   0.000337    1.70  0.000111  (-0.008075 -0.005739 -0.003613)
 36:    958.35   0.000124    0.63  0.000040  ( 0.005553 -0.002944  0.000920)
 37:    964.59   0.000214    1.08  0.000069  ( 0.006251  0.003250  0.004440)
 38:   1005.87   0.005190   26.23  0.001610  ( 0.030235  0.008185  0.025077)
 39:   1010.91   0.002979   15.05  0.000920  ( 0.009329 -0.028365  0.005290)
 40:   1065.20   0.002161   10.92  0.000633  ( 0.014573  0.004084  0.020098)
 41:   1071.39   0.001500    7.58  0.000437  (-0.005098  0.011338  0.016805)
 42:   1096.44   0.000789    3.99  0.000225  (-0.008300  0.011369 -0.005149)
 43:   1141.90   0.000026    0.13  0.000007  ( 0.000072 -0.001606 -0.002103)
 44:   1149.00   0.004531   22.90  0.001231  (-0.031057 -0.015606 -0.004752)
 45:   1161.61   0.001552    7.85  0.000417  (-0.005134  0.018386 -0.007254)
 46:   1166.62   0.008733   44.13  0.002336  ( 0.024649  0.036856  0.019241)
 47:   1190.42   0.000598    3.02  0.000157  ( 0.008482  0.009150 -0.001002)
 48:   1202.74   0.007237   36.57  0.001878  ( 0.011936  0.027942  0.030896)
 49:   1240.07   0.004548   22.98  0.001145  ( 0.005864  0.027655 -0.018584)
 50:   1282.86   0.012944   65.42  0.003149  ( 0.039624 -0.024550 -0.031241)
 51:   1292.46   0.019655   99.33  0.004746  (-0.061979  0.028354 -0.010018)
 52:   1372.39   0.000636    3.22  0.000145  ( 0.011333 -0.003843 -0.001206)
 53:   1379.49   0.015395   77.80  0.003483  ( 0.028791 -0.050943  0.007649)
 54:   1384.98   0.000402    2.03  0.000090  ( 0.006806 -0.002926 -0.005968)
 55:   1420.83   0.006438   32.54  0.001414  ( 0.030096 -0.021985 -0.004998)
 56:   1430.66   0.001962    9.91  0.000428  ( 0.001141  0.011165  0.017377)
 57:   1447.80   0.005708   28.85  0.001230  (-0.011007 -0.025048 -0.021951)
 58:   1450.03   0.002480   12.53  0.000534  ( 0.002627  0.022031 -0.006430)
 59:   1461.89   0.016755   84.67  0.003577  (-0.047539 -0.022872 -0.028168)
 60:   1494.28   0.008893   44.94  0.001857  (-0.020859  0.036727 -0.008564)
 61:   1500.11   0.001201    6.07  0.000250  ( 0.013883 -0.001450  0.007422)
 62:   1510.96   0.001042    5.27  0.000215  (-0.013863  0.004142  0.002424)
 63:   1513.90   0.000340    1.72  0.000070  ( 0.001303 -0.006043 -0.005644)
 64:   1517.97   0.000515    2.60  0.000106  (-0.004739 -0.006718 -0.006189)
 65:   1523.22   0.003226   16.31  0.000661  ( 0.022502 -0.006769 -0.010432)
 66:   1526.20   0.002193   11.08  0.000449  ( 0.012687 -0.002641 -0.016750)
 67:   1528.41   0.003749   18.95  0.000765  ( 0.018239 -0.017201 -0.011703)
 68:   1535.99   0.002064   10.43  0.000419  ( 0.007305 -0.003946 -0.018718)
 69:   1538.35   0.004686   23.68  0.000951  ( 0.019400  0.020889 -0.011741)
 70:   1542.71   0.001102    5.57  0.000223  ( 0.004648 -0.013260  0.005047)
 71:   1551.54   0.003440   17.38  0.000692  (-0.016256  0.014279  0.014957)
 72:   1570.30   0.008043   40.65  0.001598  ( 0.026737  0.005485  0.029213)
 73:   1730.47   0.052609  265.86  0.009487  ( 0.013077  0.093909 -0.022299)
 74:   1745.58   0.061454  310.56  0.010986  ( 0.002024  0.092648  0.048976)
 75:   3020.14   0.005858   29.60  0.000605  (-0.001028  0.021942  0.011081)
 76:   3029.84   0.016682   84.30  0.001718  (-0.024370 -0.010791 -0.031746)
 77:   3056.74   0.003917   19.80  0.000400  (-0.011050 -0.003079 -0.016381)
 78:   3061.08   0.002896   14.64  0.000295  (-0.010364 -0.011642  0.007233)
 79:   3067.65   0.009917   50.12  0.001009  ( 0.022450  0.017371 -0.014249)
 80:   3074.70   0.001587    8.02  0.000161  (-0.010869 -0.006033  0.002552)
 81:   3078.30   0.005993   30.29  0.000608  (-0.018498 -0.010605  0.012365)
 82:   3085.13   0.003662   18.51  0.000370  ( 0.005623 -0.006584 -0.017189)
 83:   3094.53   0.000540    2.73  0.000054  (-0.004890 -0.000247 -0.005523)
 84:   3120.22   0.001415    7.15  0.000142  (-0.002366  0.003894 -0.010988)
 85:   3126.00   0.007935   40.10  0.000792  (-0.001758  0.027794 -0.004063)
 86:   3137.80   0.003589   18.14  0.000357  (-0.018606 -0.003227 -0.000594)
 87:   3148.35   0.006406   32.37  0.000635  (-0.015027  0.012287  0.016067)
 88:   3149.78   0.001755    8.87  0.000174  (-0.002520  0.003601  0.012432)
 89:   3171.23   0.000366    1.85  0.000036  ( 0.005971  0.000113  0.000588)
 90:   3181.71   0.002126   10.74  0.000208  ( 0.002752  0.011723 -0.007968)
 91:   3189.32   0.002701   13.65  0.000264  (-0.016221  0.000851 -0.000698)
 92:   3191.42   0.000277    1.40  0.000027  (-0.004342 -0.002752  0.000832)

--------------------------
THERMOCHEMISTRY AT 298.15K
--------------------------

Temperature         ... 298.15 K
Pressure            ... 1.00 atm
Total Mass          ... 186.26 AMU

Throughout the following assumptions are being made:
  (1) The electronic state is orbitally nondegenerate
  (2) There are no thermally accessible electronically excited states
  (3) Hindered rotations indicated by low frequency modes are not
      treated as such but are treated as vibrations and this may
      cause some error
  (4) All equations used are the standard statistical mechanics
      equations for an ideal gas
  (5) All vibrations are strictly harmonic

freq.      25.38  E(vib)   ...       0.56
freq.      61.28  E(vib)   ...       0.51
freq.      76.01  E(vib)   ...       0.49
freq.      83.31  E(vib)   ...       0.48
freq.     104.30  E(vib)   ...       0.46
freq.     120.84  E(vib)   ...       0.44
freq.     146.51  E(vib)   ...       0.41
freq.     164.79  E(vib)   ...       0.39
freq.     173.60  E(vib)   ...       0.38
freq.     209.53  E(vib)   ...       0.34
freq.     222.98  E(vib)   ...       0.33
freq.     236.20  E(vib)   ...       0.32
freq.     260.33  E(vib)   ...       0.30
freq.     277.98  E(vib)   ...       0.28
freq.     305.76  E(vib)   ...       0.26
freq.     331.32  E(vib)   ...       0.24
freq.     366.60  E(vib)   ...       0.22
freq.     395.49  E(vib)   ...       0.20
freq.     425.60  E(vib)   ...       0.18
freq.     449.38  E(vib)   ...       0.17
freq.     486.53  E(vib)   ...       0.15
freq.     532.98  E(vib)   ...       0.13
freq.     581.22  E(vib)   ...       0.11
freq.     604.02  E(vib)   ...       0.10
freq.     619.96  E(vib)   ...       0.09
freq.     679.61  E(vib)   ...       0.08
freq.     740.97  E(vib)   ...       0.06
freq.     801.55  E(vib)   ...       0.05
freq.     889.03  E(vib)   ...       0.04
freq.     944.92  E(vib)   ...       0.03
freq.     958.35  E(vib)   ...       0.03
freq.     964.59  E(vib)   ...       0.03
freq.    1005.87  E(vib)   ...       0.02
freq.    1010.91  E(vib)   ...       0.02
freq.    1065.20  E(vib)   ...       0.02
freq.    1071.39  E(vib)   ...       0.02
freq.    1096.44  E(vib)   ...       0.02
freq.    1141.90  E(vib)   ...       0.01
freq.    1149.00  E(vib)   ...       0.01
freq.    1161.61  E(vib)   ...       0.01
freq.    1166.62  E(vib)   ...       0.01
freq.    1190.42  E(vib)   ...       0.01
freq.    1202.74  E(vib)   ...       0.01
freq.    1240.07  E(vib)   ...       0.01
freq.    1282.86  E(vib)   ...       0.01
freq.    1292.46  E(vib)   ...       0.01
freq.    1372.39  E(vib)   ...       0.01
freq.    1379.49  E(vib)   ...       0.01
freq.    1384.98  E(vib)   ...       0.00
freq.    1420.83  E(vib)   ...       0.00
freq.    1430.66  E(vib)   ...       0.00
freq.    1447.80  E(vib)   ...       0.00
freq.    1450.03  E(vib)   ...       0.00
freq.    1461.89  E(vib)   ...       0.00
freq.    1494.28  E(vib)   ...       0.00
freq.    1500.11  E(vib)   ...       0.00
freq.    1510.96  E(vib)   ...       0.00
freq.    1513.90  E(vib)   ...       0.00
freq.    1517.97  E(vib)   ...       0.00
freq.    1523.22  E(vib)   ...       0.00
freq.    1526.20  E(vib)   ...       0.00
freq.    1528.41  E(vib)   ...       0.00
freq.    1535.99  E(vib)   ...       0.00
freq.    1538.35  E(vib)   ...       0.00
freq.    1542.71  E(vib)   ...       0.00
freq.    1551.54  E(vib)   ...       0.00
freq.    1570.30  E(vib)   ...       0.00
freq.    1730.47  E(vib)   ...       0.00
freq.    1745.58  E(vib)   ...       0.00
freq.    3020.14  E(vib)   ...       0.00
freq.    3029.84  E(vib)   ...       0.00
freq.    3056.74  E(vib)   ...       0.00
freq.    3061.08  E(vib)   ...       0.00
freq.    3067.65  E(vib)   ...       0.00
freq.    3074.70  E(vib)   ...       0.00
freq.    3078.30  E(vib)   ...       0.00
freq.    3085.13  E(vib)   ...       0.00
freq.    3094.53  E(vib)   ...       0.00
freq.    3120.22  E(vib)   ...       0.00
freq.    3126.00  E(vib)   ...       0.00
freq.    3137.80  E(vib)   ...       0.00
freq.    3148.35  E(vib)   ...       0.00
freq.    3149.78  E(vib)   ...       0.00
freq.    3171.23  E(vib)   ...       0.00
freq.    3181.71  E(vib)   ...       0.00
freq.    3189.32  E(vib)   ...       0.00
freq.    3191.42  E(vib)   ...       0.00

------------
INNER ENERGY
------------

The inner energy is: U= E(el) + E(ZPE) + E(vib) + E(rot) + E(trans)
    E(el)   - is the total energy from the electronic structure calculation
              = E(kin-el) + E(nuc-el) + E(el-el) + E(nuc-nuc)
    E(ZPE)  - the the zero temperature vibrational energy from the frequency calculation
    E(vib)  - the the finite temperature correction to E(ZPE) due to population
              of excited vibrational states
    E(rot)  - is the rotational thermal energy
    E(trans)- is the translational thermal energy

Summary of contributions to the inner energy U:
Electronic energy                ...   -613.43481791 Eh
Zero point energy                ...      0.27333542 Eh     171.52 kcal/mol
Thermal vibrational correction   ...      0.01285933 Eh       8.07 kcal/mol
Thermal rotational correction    ...      0.00141627 Eh       0.89 kcal/mol
Thermal translational correction ...      0.00141627 Eh       0.89 kcal/mol
-----------------------------------------------------------------------
Total thermal energy                   -613.14579063 Eh

Summary of corrections to the electronic energy:
(perhaps to be used in another calculation)
Total thermal correction                  0.01569187 Eh       9.85 kcal/mol
Non-thermal (ZPE) correction              0.27333542 Eh     171.52 kcal/mol
-----------------------------------------------------------------------
Total correction                          0.28902729 Eh     181.37 kcal/mol

--------
ENTHALPY
--------

The enthalpy is H = U + kB*T
                kB is Boltzmann's constant
Total free energy                 ...   -613.14579063 Eh
Thermal Enthalpy correction       ...      0.00094421 Eh       0.59 kcal/mol
-----------------------------------------------------------------------
Total Enthalpy                    ...   -613.14484642 Eh

Note: Only C1 symmetry has been detected, increase convergence thresholds
      if your molecule has a higher symmetry. Symmetry factor of 1.0 is
      used for the rotational entropy correction.

Note: Rotational entropy computed according to Herzberg
Infrared and Raman Spectra, Chapter V,1, Van Nostrand Reinhold, 1945
Point Group:  C1, Symmetry Number:   1
Rotational constants in cm-1:     0.036161     0.020045     0.016244

Vibrational entropy computed according to the QRRHO of S. Grimme
Chem.Eur.J. 2012 18 9955

                             ****ORCA TERMINATED NORMALLY****
TOTAL RUN TIME: 0 days 0 hours 20 minutes 32 seconds 490 msec
