                         Program Version 5.0.4 -  RELEASE  -
|  1> ! OPT FREQ B3LYP 6-31G(d) D4 AUTOAUX CPCM(water)
|  2>
|  3> %PAL NPROCS 4 END
|  4>
|  5> %maxcore 3375
|  6>
|  7> *xyzfile 0 1 /users/fjb15167/WWenergy/structures/Nf.xyz
|  8>
|  9>                          ****END OF INPUT****
 Total Charge           Charge          ....    0
 Multiplicity           Mult            ....    1
 Number of Electrons    NEL             ....  126
Dispersion correction           -0.069136420
FINAL SINGLE POINT ENERGY      -765.795325086420
Dispersion correction            ... Starting D4
Dispersion correction           -0.068484569
FINAL SINGLE POINT ENERGY      -765.795816631031
Dispersion correction            ... Starting D4
Dispersion correction           -0.068973414
FINAL SINGLE POINT ENERGY      -765.795869194512
Dispersion correction            ... Starting D4
FINAL SINGLE POINT ENERGY      -765.796001572327
FINAL SINGLE POINT ENERGY      -765.796007117637
FINAL SINGLE POINT ENERGY      -765.796039366592
FINAL SINGLE POINT ENERGY      -765.796046585553
Dispersion correction           -0.068823667
FINAL SINGLE POINT ENERGY      -765.796048511935
Dispersion correction            ... Starting D4
Dispersion correction           -0.068799665
FINAL SINGLE POINT ENERGY      -765.796050213318
Dispersion correction            ... Starting D4
                    ***********************HURRAY********************

CARTESIAN COORDINATES (ANGSTROEM)
---------------------------------
  C      2.557140    1.694731   -0.750098
  H      3.166544    1.544563    0.144159
  H      2.903466    2.580825   -1.285689
  H      2.695503    0.825333   -1.403036
  C      1.083754    1.893795   -0.447269
  N      0.513395    1.154085    0.554005
  C     -0.839490    1.534667    1.007987
  H     -1.009406    2.555762    0.664047
  H     -0.832629    1.537261    2.103005
  C     -1.925697    0.616333    0.494934
  C     -2.301123    0.657208   -0.856108
  C     -2.541690   -0.308722    1.344649
  C     -3.265267   -0.221680   -1.347565
  H     -1.820432    1.374435   -1.515297
  C     -3.508918   -1.191756    0.853906
  H     -2.261070   -0.339665    2.395230
  C     -3.869585   -1.151922   -0.493829
  H     -3.548206   -0.182992   -2.396492
  H     -3.977258   -1.908009    1.524127
  H     -4.619792   -1.837729   -0.878825
  C      1.226222    0.197021    1.403684
  H      1.817412    0.715373    2.166481
  H      0.464884   -0.390253    1.928631
  C      2.201658   -0.786884    0.738058
  N      1.769889   -1.549281   -0.297358
  O      3.350348   -0.863093    1.193092
  O      0.417596    2.705859   -1.101946
  C      0.403440   -1.575590   -0.805627
  H      0.281587   -0.914235   -1.672323
  H      0.170710   -2.599766   -1.114611
  H     -0.308772   -1.283858   -0.038094
  C      2.722505   -2.393274   -1.011730
  H      2.450503   -3.450201   -0.902823
  H      2.713786   -2.139391   -2.078674
  H      3.717993   -2.229949   -0.602598

 Multiplicity           Mult            ....    1
 Number of Electrons    NEL             ....  126
 Basis Dimension        Dim             ....  274

ORBITAL ENERGIES
----------------

  NO   OCC          E(Eh)            E(eV)
   0   2.0000     -19.107806      -519.9498
   1   2.0000     -19.107786      -519.9493
   2   2.0000     -14.360646      -390.7731
   3   2.0000     -14.360342      -390.7648
   4   2.0000     -10.283507      -279.8285
   5   2.0000     -10.282817      -279.8097
   6   2.0000     -10.220297      -278.1084
   7   2.0000     -10.208708      -277.7931
   8   2.0000     -10.199337      -277.5381
   9   2.0000     -10.196652      -277.4650
  10   2.0000     -10.186920      -277.2002
  11   2.0000     -10.179949      -277.0105
  12   2.0000     -10.179638      -277.0020
  13   2.0000     -10.179338      -276.9939
  14   2.0000     -10.179153      -276.9888
  15   2.0000     -10.176423      -276.9145
  16   2.0000     -10.171002      -276.7670
  17   2.0000      -1.031978       -28.0815
  18   2.0000      -1.026349       -27.9284
  19   2.0000      -0.934879       -25.4393
  20   2.0000      -0.925775       -25.1916
  21   2.0000      -0.849740       -23.1226
  22   2.0000      -0.771918       -21.0050
  23   2.0000      -0.742075       -20.1929
  24   2.0000      -0.738838       -20.1048
  25   2.0000      -0.730135       -19.8680
  26   2.0000      -0.710797       -19.3418
  27   2.0000      -0.682407       -18.5692
  28   2.0000      -0.670429       -18.2433
  29   2.0000      -0.600119       -16.3301
  30   2.0000      -0.586308       -15.9542
  31   2.0000      -0.559734       -15.2311
  32   2.0000      -0.536299       -14.5935
  33   2.0000      -0.510463       -13.8904
  34   2.0000      -0.494556       -13.4576
  35   2.0000      -0.488120       -13.2824
  36   2.0000      -0.478545       -13.0219
  37   2.0000      -0.463204       -12.6044
  38   2.0000      -0.456149       -12.4124
  39   2.0000      -0.452944       -12.3252
  40   2.0000      -0.445493       -12.1225
  41   2.0000      -0.440055       -11.9745
  42   2.0000      -0.414246       -11.2722
  43   2.0000      -0.413486       -11.2515
  44   2.0000      -0.409327       -11.1384
  45   2.0000      -0.402292       -10.9469
  46   2.0000      -0.399085       -10.8597
  47   2.0000      -0.395931       -10.7738
  48   2.0000      -0.393507       -10.7079
  49   2.0000      -0.389597       -10.6015
  50   2.0000      -0.378025       -10.2866
  51   2.0000      -0.376971       -10.2579
  52   2.0000      -0.354752        -9.6533
  53   2.0000      -0.353288        -9.6134
  54   2.0000      -0.351314        -9.5597
  55   2.0000      -0.336747        -9.1634
  56   2.0000      -0.333369        -9.0714
  57   2.0000      -0.257508        -7.0071
  58   2.0000      -0.253458        -6.8969
  59   2.0000      -0.248687        -6.7671
  60   2.0000      -0.241923        -6.5831
  61   2.0000      -0.238703        -6.4954
  62   2.0000      -0.235222        -6.4007
  63   0.0000      -0.004406        -0.1199
  64   0.0000       0.001149         0.0313
  65   0.0000       0.018045         0.4910
  66   0.0000       0.024788         0.6745
  67   0.0000       0.088921         2.4197

MULLIKEN ATOMIC CHARGES
-----------------------
   0 C :   -0.569686
   1 H :    0.188742
   2 H :    0.182751
   3 H :    0.202575
   4 C :    0.535776
   5 N :   -0.368386
   6 C :   -0.252141
   7 H :    0.184671
   8 H :    0.178681
   9 C :    0.147640
  10 C :   -0.180798
  11 C :   -0.199705
  12 C :   -0.150159
  13 H :    0.151255
  14 C :   -0.147409
  15 H :    0.153456
  16 C :   -0.148248
  17 H :    0.152125
  18 H :    0.152862
  19 H :    0.152080
  20 C :   -0.256625
  21 H :    0.190310
  22 H :    0.211019
  23 C :    0.522567
  24 N :   -0.357550
  25 O :   -0.546176
  26 O :   -0.539783
  27 C :   -0.337513
  28 H :    0.175862
  29 H :    0.177190
  30 H :    0.191575
  31 C :   -0.333052
  32 H :    0.175139
  33 H :    0.175342
  34 H :    0.185613
Sum of atomic charges:   -0.0000000

LOEWDIN ATOMIC CHARGES
----------------------
   0 C :   -0.397764
   1 H :    0.150335
   2 H :    0.152060
   3 H :    0.161548
   4 C :    0.116130
   5 N :   -0.075223
   6 C :   -0.148204
   7 H :    0.150909
   8 H :    0.140786
   9 C :   -0.037108
  10 C :   -0.133201
  11 C :   -0.143099
  12 C :   -0.135883
  13 H :    0.141551
  14 C :   -0.136617
  15 H :    0.140947
  16 C :   -0.137626
  17 H :    0.140909
  18 H :    0.141433
  19 H :    0.140960
  20 C :   -0.178747
  21 H :    0.148409
  22 H :    0.163967
  23 C :    0.095924
  24 N :   -0.067049
  25 O :   -0.340130
  26 O :   -0.339289
  27 C :   -0.279808
  28 H :    0.134378
  29 H :    0.140653
  30 H :    0.147799
  31 C :   -0.279094
  32 H :    0.136078
  33 H :    0.136292
  34 H :    0.147773

  Mayer bond orders larger than 0.100000
B(  0-C ,  1-H ) :   0.9154 B(  0-C ,  2-H ) :   0.9353 B(  0-C ,  3-H ) :   0.9179
B(  0-C ,  4-C ) :   0.9961 B(  4-C ,  5-N ) :   1.1622 B(  4-C , 26-O ) :   1.7506
B(  5-N ,  6-C ) :   0.9268 B(  5-N , 20-C ) :   0.9213 B(  6-C ,  7-H ) :   0.9071
B(  6-C ,  8-H ) :   0.9217 B(  6-C ,  9-C ) :   0.9668 B(  9-C , 10-C ) :   1.4262
B(  9-C , 11-C ) :   1.4335 B( 10-C , 12-C ) :   1.4439 B( 10-C , 13-H ) :   0.9095
B( 11-C , 14-C ) :   1.4224 B( 11-C , 15-H ) :   0.9187 B( 12-C , 16-C ) :   1.4329
B( 12-C , 17-H ) :   0.9263 B( 14-C , 16-C ) :   1.4602 B( 14-C , 18-H ) :   0.9257
B( 16-C , 19-H ) :   0.9268 B( 20-C , 21-H ) :   0.9128 B( 20-C , 22-H ) :   0.9039
B( 20-C , 23-C ) :   0.9445 B( 23-C , 24-N ) :   1.2054 B( 23-C , 25-O ) :   1.7402
B( 24-N , 25-O ) :   0.1009 B( 24-N , 27-C ) :   0.9445 B( 24-N , 31-C ) :   0.9438
B( 27-C , 28-H ) :   0.9289 B( 27-C , 29-H ) :   0.9343 B( 27-C , 30-H ) :   0.9170
B( 31-C , 32-H ) :   0.9361 B( 31-C , 33-H ) :   0.9360 B( 31-C , 34-H ) :   0.9251

Dispersion correction           -0.068797609
FINAL SINGLE POINT ENERGY      -765.796050270509

DIPOLE MOMENT
-------------
                                X             Y             Z
Electronic contribution:     -3.20489       4.54802       3.16649
Nuclear contribution   :      2.12886      -6.12138      -3.03983
                        -----------------------------------------
Total Dipole Moment    :     -1.07603      -1.57336       0.12665
                        -----------------------------------------
Magnitude (a.u.)       :      1.91032
Magnitude (Debye)      :      4.85565

Dispersion correction in the Hessian             ... Starting D4

VIBRATIONAL FREQUENCIES
-----------------------

Scaling factor for frequencies =  1.000000000  (already applied!)

   0:         0.00 cm**-1
   1:         0.00 cm**-1
   2:         0.00 cm**-1
   3:         0.00 cm**-1
   4:         0.00 cm**-1
   5:         0.00 cm**-1
   6:        29.83 cm**-1
   7:        47.81 cm**-1
   8:        50.41 cm**-1
   9:        71.49 cm**-1
  10:        76.80 cm**-1
  11:        94.55 cm**-1
  12:        98.17 cm**-1
  13:       123.45 cm**-1
  14:       156.73 cm**-1
  15:       184.47 cm**-1
  16:       191.04 cm**-1
  17:       213.23 cm**-1
  18:       236.27 cm**-1
  19:       248.45 cm**-1
  20:       291.39 cm**-1
  21:       322.41 cm**-1
  22:       327.74 cm**-1
  23:       408.28 cm**-1
  24:       409.93 cm**-1
  25:       418.69 cm**-1
  26:       451.53 cm**-1
  27:       464.30 cm**-1
  28:       521.01 cm**-1
  29:       575.60 cm**-1
  30:       588.48 cm**-1
  31:       611.41 cm**-1
  32:       623.95 cm**-1
  33:       634.16 cm**-1
  34:       692.01 cm**-1
  35:       719.43 cm**-1
  36:       753.60 cm**-1
  37:       774.92 cm**-1
  38:       807.61 cm**-1
  39:       834.27 cm**-1
  40:       870.40 cm**-1
  41:       931.74 cm**-1
  42:       953.38 cm**-1
  43:       977.43 cm**-1
  44:       983.39 cm**-1
  45:      1006.22 cm**-1
  46:      1008.15 cm**-1
  47:      1016.17 cm**-1
  48:      1017.70 cm**-1
  49:      1055.21 cm**-1
  50:      1062.40 cm**-1
  51:      1090.42 cm**-1
  52:      1091.00 cm**-1
  53:      1120.10 cm**-1
  54:      1135.32 cm**-1
  55:      1178.37 cm**-1
  56:      1182.25 cm**-1
  57:      1190.30 cm**-1
  58:      1197.14 cm**-1
  59:      1203.86 cm**-1
  60:      1237.72 cm**-1
  61:      1279.54 cm**-1
  62:      1291.61 cm**-1
  63:      1312.04 cm**-1
  64:      1349.97 cm**-1
  65:      1363.00 cm**-1
  66:      1377.29 cm**-1
  67:      1400.32 cm**-1
  68:      1414.25 cm**-1
  69:      1440.97 cm**-1
  70:      1457.22 cm**-1
  71:      1466.97 cm**-1
  72:      1485.25 cm**-1
  73:      1492.87 cm**-1
  74:      1498.79 cm**-1
  75:      1500.80 cm**-1
  76:      1504.37 cm**-1
  77:      1507.36 cm**-1
  78:      1515.29 cm**-1
  79:      1517.12 cm**-1
  80:      1531.48 cm**-1
  81:      1542.27 cm**-1
  82:      1553.96 cm**-1
  83:      1641.38 cm**-1
  84:      1660.75 cm**-1
  85:      1704.47 cm**-1
  86:      1712.29 cm**-1
  87:      3045.38 cm**-1
  88:      3052.71 cm**-1
  89:      3065.26 cm**-1
  90:      3069.86 cm**-1
  91:      3078.09 cm**-1
  92:      3099.17 cm**-1
  93:      3110.18 cm**-1
  94:      3112.14 cm**-1
  95:      3140.76 cm**-1
  96:      3150.51 cm**-1
  97:      3168.92 cm**-1
  98:      3181.51 cm**-1
  99:      3188.28 cm**-1
 100:      3195.94 cm**-1
 101:      3197.38 cm**-1
 102:      3207.18 cm**-1
 103:      3211.43 cm**-1
 104:      3213.87 cm**-1

IR SPECTRUM
-----------

 Mode   freq       eps      Int      T**2         TX        TY        TZ
       cm**-1   L/(mol*cm) km/mol    a.u.
----------------------------------------------------------------------------
  6:     29.83   0.000549    2.78  0.005746  (-0.014966  0.031379 -0.067359)
  7:     47.81   0.000360    1.82  0.002352  (-0.033979 -0.027220  0.021374)
  8:     50.41   0.000071    0.36  0.000438  (-0.017230 -0.011651  0.002388)
  9:     71.49   0.000442    2.23  0.001930  (-0.028220 -0.000122  0.033664)
 10:     76.80   0.001500    7.58  0.006095  ( 0.007002  0.069900  0.034054)
 11:     94.55   0.001554    7.85  0.005129  ( 0.009325  0.061369  0.035720)
 12:     98.17   0.000334    1.69  0.001063  (-0.015350 -0.025139  0.013965)
 13:    123.45   0.000471    2.38  0.001191  (-0.021646  0.010684 -0.024667)
 14:    156.73   0.001271    6.43  0.002532  (-0.028226 -0.041652  0.000132)
 15:    184.47   0.000332    1.68  0.000562  ( 0.009315  0.017022  0.013606)
 16:    191.04   0.001216    6.14  0.001986  ( 0.038424  0.012481 -0.018816)
 17:    213.23   0.000025    0.13  0.000036  ( 0.003257 -0.003111  0.004018)
 18:    236.27   0.000586    2.96  0.000775  (-0.018455 -0.007499  0.019437)
 19:    248.45   0.002067   10.44  0.002596  (-0.008236 -0.046053  0.020180)
 20:    291.39   0.000633    3.20  0.000678  ( 0.012166  0.008444 -0.021413)
 21:    322.41   0.002123   10.73  0.002055  (-0.018153 -0.030460 -0.028242)
 22:    327.74   0.000504    2.55  0.000480  ( 0.000681  0.021457  0.004369)
 23:    408.28   0.001116    5.64  0.000853  (-0.010123 -0.025408  0.010244)
 24:    409.93   0.001555    7.86  0.001184  (-0.006958  0.018203  0.028359)
 25:    418.69   0.000067    0.34  0.000050  (-0.006247 -0.003270 -0.000640)
 26:    451.53   0.001083    5.47  0.000749  ( 0.022635 -0.005242 -0.014454)
 27:    464.30   0.001014    5.12  0.000681  (-0.017939  0.007197  0.017541)
 28:    521.01   0.005739   29.00  0.003437  (-0.050402  0.003128  0.029788)
 29:    575.60   0.005398   27.28  0.002927  (-0.013013  0.028617 -0.044028)
 30:    588.48   0.001843    9.31  0.000977  ( 0.027892 -0.014109  0.000036)
 31:    611.41   0.000293    1.48  0.000149  ( 0.011255  0.002378 -0.004131)
 32:    623.95   0.010977   55.47  0.005490  ( 0.012764  0.068648  0.024792)
 33:    634.16   0.000096    0.49  0.000047  (-0.001104  0.001554  0.006609)
 34:    692.01   0.001563    7.90  0.000705  (-0.026178 -0.000522 -0.004398)
 35:    719.43   0.011926   60.27  0.005173  (-0.052347  0.046992  0.014991)
 36:    753.60   0.002676   13.52  0.001108  ( 0.023653  0.022322  0.007089)
 37:    774.92   0.005686   28.73  0.002290  ( 0.015233 -0.043172 -0.013921)
 38:    807.61   0.002293   11.59  0.000886  ( 0.026874  0.012260  0.003685)
 39:    834.27   0.003350   16.93  0.001253  ( 0.028678  0.017576  0.011037)
 40:    870.40   0.000005    0.02  0.000002  ( 0.000473  0.001096  0.000509)
 41:    931.74   0.000655    3.31  0.000219  ( 0.012890  0.002130 -0.006968)
 42:    953.38   0.002489   12.58  0.000815  ( 0.021807 -0.015461  0.010014)
 43:    977.43   0.000950    4.80  0.000303  ( 0.012282 -0.009365 -0.008043)
 44:    983.39   0.000036    0.18  0.000011  ( 0.002629  0.000362  0.002099)
 45:   1006.22   0.009055   45.76  0.002808  ( 0.015427  0.036013  0.035685)
 46:   1008.15   0.000130    0.66  0.000040  (-0.006260  0.000868 -0.000603)
 47:   1016.17   0.000128    0.65  0.000039  (-0.005586 -0.002441 -0.001493)
 48:   1017.70   0.006922   34.98  0.002122  (-0.004644 -0.028032  0.036264)
 49:   1055.21   0.001415    7.15  0.000418  (-0.015794 -0.012523 -0.003477)
 50:   1062.40   0.002906   14.68  0.000853  (-0.001536 -0.023587 -0.017168)
 51:   1090.42   0.001846    9.33  0.000528  ( 0.019367  0.003922 -0.011740)
 52:   1091.00   0.002672   13.50  0.000764  ( 0.012034 -0.015757  0.019269)
 53:   1120.10   0.002117   10.70  0.000590  (-0.010496  0.012674 -0.017859)
 54:   1135.32   0.000631    3.19  0.000173  ( 0.011184  0.001486  0.006791)
 55:   1178.37   0.002076   10.49  0.000550  ( 0.013291  0.015775  0.011149)
 56:   1182.25   0.000032    0.16  0.000008  ( 0.000296 -0.001398 -0.002532)
 57:   1190.30   0.010614   53.64  0.002783  (-0.047871  0.018202  0.012641)
 58:   1197.14   0.018921   95.62  0.004932  (-0.031091 -0.039017 -0.049431)
 59:   1203.86   0.000038    0.19  0.000010  (-0.000712 -0.000471 -0.003029)
 60:   1237.72   0.001686    8.52  0.000425  ( 0.018234  0.002354  0.009334)
 61:   1279.54   0.028451  143.78  0.006939  ( 0.062037  0.040984 -0.037557)
 62:   1291.61   0.015154   76.58  0.003661  (-0.037725  0.034050  0.032844)
 63:   1312.04   0.014747   74.52  0.003508  ( 0.015183  0.035472 -0.044930)
 64:   1349.97   0.018963   95.83  0.004384  ( 0.006949  0.034352 -0.056172)
 65:   1363.00   0.001605    8.11  0.000367  (-0.007840  0.008343 -0.015374)
 66:   1377.29   0.002328   11.76  0.000527  (-0.003897  0.018861 -0.012509)
 67:   1400.32   0.011094   56.07  0.002472  (-0.031602 -0.035495  0.014625)
 68:   1414.25   0.003633   18.36  0.000802  (-0.023575  0.004308  0.015076)
 69:   1440.97   0.016623   84.00  0.003600  ( 0.023946  0.037622  0.040138)
 70:   1457.22   0.020090  101.52  0.004302  ( 0.020679 -0.015116 -0.060383)
 71:   1466.97   0.021595  109.13  0.004594  ( 0.015000  0.061948 -0.023051)
 72:   1485.25   0.004143   20.94  0.000870  (-0.019990 -0.018060  0.012028)
 73:   1492.87   0.001742    8.80  0.000364  ( 0.017510 -0.004335  0.006230)
 74:   1498.79   0.002158   10.90  0.000449  (-0.014534  0.007169  0.013661)
 75:   1500.80   0.002189   11.06  0.000455  ( 0.006935 -0.012102  0.016141)
 76:   1504.37   0.004002   20.22  0.000830  ( 0.016197 -0.015667 -0.017953)
 77:   1507.36   0.005664   28.62  0.001173  (-0.025654 -0.021908 -0.005880)
 78:   1515.29   0.004422   22.35  0.000911  ( 0.014318 -0.025327  0.008019)
 79:   1517.12   0.006215   31.41  0.001278  (-0.030866 -0.004973  0.017347)
 80:   1531.48   0.014684   74.21  0.002992  ( 0.031693  0.015136 -0.041934)
 81:   1542.27   0.004600   23.25  0.000931  ( 0.025484  0.016502  0.003020)
 82:   1553.96   0.016085   81.29  0.003230  ( 0.012073 -0.040897 -0.037574)
 83:   1641.38   0.000555    2.81  0.000106  (-0.001821  0.007323 -0.006975)
 84:   1660.75   0.000568    2.87  0.000107  ( 0.009846  0.002896  0.001189)
 85:   1704.47   0.121095  611.97  0.022171  (-0.062359  0.090567 -0.100399)
 86:   1712.29   0.103822  524.67  0.018921  ( 0.107936  0.051598  0.067888)
 87:   3045.38   0.008379   42.34  0.000859  ( 0.015832 -0.021516 -0.012041)
 88:   3052.71   0.013422   67.83  0.001372  ( 0.016126  0.010533  0.031640)
 89:   3065.26   0.003842   19.42  0.000391  (-0.012004  0.006533 -0.014295)
 90:   3069.86   0.000548    2.77  0.000056  ( 0.006262  0.000954 -0.003947)
 91:   3078.09   0.011282   57.01  0.001144  (-0.000160  0.010994  0.031983)
 92:   3099.17   0.009762   49.33  0.000983  (-0.005011 -0.025393  0.017692)
 93:   3110.18   0.002876   14.53  0.000289  (-0.009607 -0.012082 -0.007094)
 94:   3112.14   0.004562   23.05  0.000457  (-0.001037  0.021042 -0.003682)
 95:   3140.76   0.002102   10.62  0.000209  (-0.008245 -0.010683 -0.005176)
 96:   3150.51   0.001167    5.90  0.000116  (-0.008682  0.005905 -0.002307)
 97:   3168.92   0.002169   10.96  0.000214  (-0.000269  0.010146 -0.010515)
 98:   3181.51   0.001669    8.43  0.000164  (-0.006630 -0.003943 -0.010208)
 99:   3188.28   0.000468    2.36  0.000046  (-0.004144 -0.004933 -0.002067)
100:   3195.94   0.000964    4.87  0.000094  (-0.009630  0.001105 -0.000375)
101:   3197.38   0.006888   34.81  0.000672  ( 0.005685 -0.000992  0.025278)
102:   3207.18   0.006593   33.32  0.000641  ( 0.013992  0.017959 -0.011099)
103:   3211.43   0.001285    6.50  0.000125  (-0.001270  0.000064 -0.011104)
104:   3213.87   0.002889   14.60  0.000280  (-0.011714 -0.004903 -0.010919)

--------------------------
THERMOCHEMISTRY AT 298.15K
--------------------------

Temperature         ... 298.15 K
Pressure            ... 1.00 atm
Total Mass          ... 234.30 AMU

Throughout the following assumptions are being made:
  (1) The electronic state is orbitally nondegenerate
  (2) There are no thermally accessible electronically excited states
  (3) Hindered rotations indicated by low frequency modes are not
      treated as such but are treated as vibrations and this may
      cause some error
  (4) All equations used are the standard statistical mechanics
      equations for an ideal gas
  (5) All vibrations are strictly harmonic

freq.      29.83  E(vib)   ...       0.55
freq.      47.81  E(vib)   ...       0.53
freq.      50.41  E(vib)   ...       0.52
freq.      71.49  E(vib)   ...       0.50
freq.      76.80  E(vib)   ...       0.49
freq.      94.55  E(vib)   ...       0.47
freq.      98.17  E(vib)   ...       0.46
freq.     123.45  E(vib)   ...       0.43
freq.     156.73  E(vib)   ...       0.40
freq.     184.47  E(vib)   ...       0.37
freq.     191.04  E(vib)   ...       0.36
freq.     213.23  E(vib)   ...       0.34
freq.     236.27  E(vib)   ...       0.32
freq.     248.45  E(vib)   ...       0.31
freq.     291.39  E(vib)   ...       0.27
freq.     322.41  E(vib)   ...       0.25
freq.     327.74  E(vib)   ...       0.24
freq.     408.28  E(vib)   ...       0.19
freq.     409.93  E(vib)   ...       0.19
freq.     418.69  E(vib)   ...       0.18
freq.     451.53  E(vib)   ...       0.16
freq.     464.30  E(vib)   ...       0.16
freq.     521.01  E(vib)   ...       0.13
freq.     575.60  E(vib)   ...       0.11
freq.     588.48  E(vib)   ...       0.10
freq.     611.41  E(vib)   ...       0.10
freq.     623.95  E(vib)   ...       0.09
freq.     634.16  E(vib)   ...       0.09
freq.     692.01  E(vib)   ...       0.07
freq.     719.43  E(vib)   ...       0.07
freq.     753.60  E(vib)   ...       0.06
freq.     774.92  E(vib)   ...       0.05
freq.     807.61  E(vib)   ...       0.05
freq.     834.27  E(vib)   ...       0.04
freq.     870.40  E(vib)   ...       0.04
freq.     931.74  E(vib)   ...       0.03
freq.     953.38  E(vib)   ...       0.03
freq.     977.43  E(vib)   ...       0.03
freq.     983.39  E(vib)   ...       0.02
freq.    1006.22  E(vib)   ...       0.02
freq.    1008.15  E(vib)   ...       0.02
freq.    1016.17  E(vib)   ...       0.02
freq.    1017.70  E(vib)   ...       0.02
freq.    1055.21  E(vib)   ...       0.02
freq.    1062.40  E(vib)   ...       0.02
freq.    1090.42  E(vib)   ...       0.02
freq.    1091.00  E(vib)   ...       0.02
freq.    1120.10  E(vib)   ...       0.01
freq.    1135.32  E(vib)   ...       0.01
freq.    1178.37  E(vib)   ...       0.01
freq.    1182.25  E(vib)   ...       0.01
freq.    1190.30  E(vib)   ...       0.01
freq.    1197.14  E(vib)   ...       0.01
freq.    1203.86  E(vib)   ...       0.01
freq.    1237.72  E(vib)   ...       0.01
freq.    1279.54  E(vib)   ...       0.01
freq.    1291.61  E(vib)   ...       0.01
freq.    1312.04  E(vib)   ...       0.01
freq.    1349.97  E(vib)   ...       0.01
freq.    1363.00  E(vib)   ...       0.01
freq.    1377.29  E(vib)   ...       0.01
freq.    1400.32  E(vib)   ...       0.00
freq.    1414.25  E(vib)   ...       0.00
freq.    1440.97  E(vib)   ...       0.00
freq.    1457.22  E(vib)   ...       0.00
freq.    1466.97  E(vib)   ...       0.00
freq.    1485.25  E(vib)   ...       0.00
freq.    1492.87  E(vib)   ...       0.00
freq.    1498.79  E(vib)   ...       0.00
freq.    1500.80  E(vib)   ...       0.00
freq.    1504.37  E(vib)   ...       0.00
freq.    1507.36  E(vib)   ...       0.00
freq.    1515.29  E(vib)   ...       0.00
freq.    1517.12  E(vib)   ...       0.00
freq.    1531.48  E(vib)   ...       0.00
freq.    1542.27  E(vib)   ...       0.00
freq.    1553.96  E(vib)   ...       0.00
freq.    1641.38  E(vib)   ...       0.00
freq.    1660.75  E(vib)   ...       0.00
freq.    1704.47  E(vib)   ...       0.00
freq.    1712.29  E(vib)   ...       0.00
freq.    3045.38  E(vib)   ...       0.00
freq.    3052.71  E(vib)   ...       0.00
freq.    3065.26  E(vib)   ...       0.00
freq.    3069.86  E(vib)   ...       0.00
freq.    3078.09  E(vib)   ...       0.00
freq.    3099.17  E(vib)   ...       0.00
freq.    3110.18  E(vib)   ...       0.00
freq.    3112.14  E(vib)   ...       0.00
freq.    3140.76  E(vib)   ...       0.00
freq.    3150.51  E(vib)   ...       0.00
freq.    3168.92  E(vib)   ...       0.00
freq.    3181.51  E(vib)   ...       0.00
freq.    3188.28  E(vib)   ...       0.00
freq.    3195.94  E(vib)   ...       0.00
freq.    3197.38  E(vib)   ...       0.00
freq.    3207.18  E(vib)   ...       0.00
freq.    3211.43  E(vib)   ...       0.00
freq.    3213.87  E(vib)   ...       0.00

------------
INNER ENERGY
------------

The inner energy is: U= E(el) + E(ZPE) + E(vib) + E(rot) + E(trans)
    E(el)   - is the total energy from the electronic structure calculation
              = E(kin-el) + E(nuc-el) + E(el-el) + E(nuc-nuc)
    E(ZPE)  - the the zero temperature vibrational energy from the frequency calculation
    E(vib)  - the the finite temperature correction to E(ZPE) due to population
              of excited vibrational states
    E(rot)  - is the rotational thermal energy
    E(trans)- is the translational thermal energy

Summary of contributions to the inner energy U:
Electronic energy                ...   -765.79605027 Eh
Zero point energy                ...      0.29746560 Eh     186.66 kcal/mol
Thermal vibrational correction   ...      0.01456132 Eh       9.14 kcal/mol
Thermal rotational correction    ...      0.00141627 Eh       0.89 kcal/mol
Thermal translational correction ...      0.00141627 Eh       0.89 kcal/mol
-----------------------------------------------------------------------
Total thermal energy                   -765.48119081 Eh

Summary of corrections to the electronic energy:
(perhaps to be used in another calculation)
Total thermal correction                  0.01739386 Eh      10.91 kcal/mol
Non-thermal (ZPE) correction              0.29746560 Eh     186.66 kcal/mol
-----------------------------------------------------------------------
Total correction                          0.31485946 Eh     197.58 kcal/mol

--------
ENTHALPY
--------

The enthalpy is H = U + kB*T
                kB is Boltzmann's constant
Total free energy                 ...   -765.48119081 Eh
Thermal Enthalpy correction       ...      0.00094421 Eh       0.59 kcal/mol
-----------------------------------------------------------------------
Total Enthalpy                    ...   -765.48024660 Eh

Note: Only C1 symmetry has been detected, increase convergence thresholds

Rotational constants in cm-1:     0.023181     0.011339     0.009601

                             ****ORCA TERMINATED NORMALLY****
TOTAL RUN TIME: 0 days 0 hours 33 minutes 25 seconds 694 msec
