                         Program Version 5.0.4 -  RELEASE  -
|  1> ! OPT FREQ B3LYP 6-31+G(d) D4 AUTOAUX
|  2>
|  3> %PAL NPROCS 4 END
|  4>
|  5> %maxcore 3375
|  6>
|  7> *xyzfile 1 1 /users/fjb15167/WWenergy/structures/Nkeqm.xyz
|  8>
|  9>                          ****END OF INPUT****
 Total Charge           Charge          ....    1
 Multiplicity           Mult            ....    1
 Number of Electrons    NEL             ....  126
Dispersion correction           -0.064735130
FINAL SINGLE POINT ENERGY      -747.726945476730
Dispersion correction            ... Starting D4
Dispersion correction           -0.063856540
FINAL SINGLE POINT ENERGY      -747.728053287166
Dispersion correction            ... Starting D4
Dispersion correction           -0.063998865
FINAL SINGLE POINT ENERGY      -747.728331238098
Dispersion correction            ... Starting D4
FINAL SINGLE POINT ENERGY      -747.728445210233
FINAL SINGLE POINT ENERGY      -747.728505828087
FINAL SINGLE POINT ENERGY      -747.728533184890
FINAL SINGLE POINT ENERGY      -747.728546792188
FINAL SINGLE POINT ENERGY      -747.728550425438
Dispersion correction           -0.063868378
FINAL SINGLE POINT ENERGY      -747.728555249784
Dispersion correction            ... Starting D4
Dispersion correction           -0.063871863
FINAL SINGLE POINT ENERGY      -747.728559339035
Dispersion correction            ... Starting D4
                    ***********************HURRAY********************

CARTESIAN COORDINATES (ANGSTROEM)
---------------------------------
  C      1.021715    2.765812    0.152125
  H      1.228764    3.077296   -0.878495
  H      1.974084    2.518151    0.635240
  H      0.562318    3.597367    0.688407
  C      0.068356    1.593972    0.209607
  O     -0.996193    1.646686    0.827979
  N      0.395114    0.439782   -0.482429
  C      1.747648    0.184464   -0.954554
  H      1.699821   -0.539490   -1.776216
  H      2.160567    1.103105   -1.375381
  C     -0.435389   -0.721168   -0.167690
  H      0.073948   -1.613524   -0.537245
  H     -0.506387   -0.817313    0.918978
  C     -1.820550   -0.583582   -0.827550
  H     -2.072071    0.467364   -0.959568
  H     -1.846922   -1.082419   -1.800589
  C      2.635225   -0.357860    0.192927
  N      3.944254   -0.592697   -0.078563
  O      2.114150   -0.566183    1.290787
  C      4.828468   -1.056776    0.991487
  H      5.358603   -1.959262    0.666661
  H      5.566916   -0.282347    1.235066
  H      4.231193   -1.277508    1.875244
  C      4.601441   -0.266664   -1.340773
  H      5.276073   -1.084383   -1.616680
  H      3.881650   -0.141728   -2.150069
  H      5.196022    0.652806   -1.250082
  N     -2.966530   -1.187634   -0.020171
  C     -2.688609   -2.634333    0.287171
  H     -2.521133   -3.169154   -0.650236
  H     -1.806596   -2.704865    0.923844
  C     -4.217931   -1.096819   -0.854412
  H     -4.409949   -0.047770   -1.085941
  H     -4.074051   -1.664268   -1.775635
  C     -3.197346   -0.427687    1.267524
  H     -3.374602    0.619946    1.029128
  H     -2.314735   -0.497584    1.898904
  H     -5.052536   -1.512164   -0.286583
  H     -3.551627   -3.055049    0.806577
  H     -4.061174   -0.871520    1.766207

 Multiplicity           Mult            ....    1
 Number of Electrons    NEL             ....  126
 Basis Dimension        Dim             ....  336

ORBITAL ENERGIES
----------------

  NO   OCC          E(Eh)            E(eV)
   0   2.0000     -19.231969      -523.3285
   1   2.0000     -19.219634      -522.9928
   2   2.0000     -14.609689      -397.5498
   3   2.0000     -14.484375      -394.1399
   4   2.0000     -14.471287      -393.7838
   5   2.0000     -10.401560      -283.0408
   6   2.0000     -10.392028      -282.7815
   7   2.0000     -10.379499      -282.4405
   8   2.0000     -10.379240      -282.4335
   9   2.0000     -10.377417      -282.3839
  10   2.0000     -10.363886      -282.0157
  11   2.0000     -10.354942      -281.7723
  12   2.0000     -10.345623      -281.5187
  13   2.0000     -10.317869      -280.7635
  14   2.0000     -10.297134      -280.1993
  15   2.0000     -10.283866      -279.8382
  16   2.0000      -1.164766       -31.6949
  17   2.0000      -1.156133       -31.4600
  18   2.0000      -1.141152       -31.0523
  19   2.0000      -1.056612       -28.7519
  20   2.0000      -1.040115       -28.3030
  21   2.0000      -0.922970       -25.1153
  22   2.0000      -0.899182       -24.4680
  23   2.0000      -0.889995       -24.2180
  24   2.0000      -0.858478       -23.3604
  25   2.0000      -0.853532       -23.2258
  26   2.0000      -0.822656       -22.3856
  27   2.0000      -0.806188       -21.9375
  28   2.0000      -0.786633       -21.4054
  29   2.0000      -0.758662       -20.6442
  30   2.0000      -0.685228       -18.6460
  31   2.0000      -0.672581       -18.3019
  32   2.0000      -0.670483       -18.2448
  33   2.0000      -0.656581       -17.8665
  34   2.0000      -0.638966       -17.3871
  35   2.0000      -0.624524       -16.9942
  36   2.0000      -0.621851       -16.9214
  37   2.0000      -0.603337       -16.4176
  38   2.0000      -0.588399       -16.0111
  39   2.0000      -0.587091       -15.9756
  40   2.0000      -0.576452       -15.6860
  41   2.0000      -0.567160       -15.4332
  42   2.0000      -0.564331       -15.3562
  43   2.0000      -0.554762       -15.0958
  44   2.0000      -0.554148       -15.0791
  45   2.0000      -0.549860       -14.9625
  46   2.0000      -0.546011       -14.8577
  47   2.0000      -0.543526       -14.7901
  48   2.0000      -0.535157       -14.5624
  49   2.0000      -0.527190       -14.3456
  50   2.0000      -0.514779       -14.0078
  51   2.0000      -0.508419       -13.8348
  52   2.0000      -0.507320       -13.8049
  53   2.0000      -0.502898       -13.6846
  54   2.0000      -0.501384       -13.6433
  55   2.0000      -0.494022       -13.4430
  56   2.0000      -0.478618       -13.0239
  57   2.0000      -0.466876       -12.7043
  58   2.0000      -0.463439       -12.6108
  59   2.0000      -0.380395       -10.3511
  60   2.0000      -0.369906       -10.0656
  61   2.0000      -0.358731        -9.7616
  62   2.0000      -0.347148        -9.4464
  63   0.0000      -0.127584        -3.4717
  64   0.0000      -0.106011        -2.8847
  65   0.0000      -0.102558        -2.7907
  66   0.0000      -0.097953        -2.6654
  67   0.0000      -0.094016        -2.5583

MULLIKEN ATOMIC CHARGES
-----------------------
   0 C :   -0.956139
   1 H :    0.240379
   2 H :    0.257375
   3 H :    0.260798
   4 C :    0.831804
   5 O :   -0.507039
   6 N :   -0.032314
   7 C :   -0.907197
   8 H :    0.242690
   9 H :    0.251613
  10 C :   -0.418385
  11 H :    0.228079
  12 H :    0.271679
  13 C :   -0.258871
  14 H :    0.286497
  15 H :    0.243164
  16 C :    0.608598
  17 N :   -0.122941
  18 O :   -0.448186
  19 C :   -0.558971
  20 H :    0.218997
  21 H :    0.225279
  22 H :    0.261511
  23 C :   -0.471227
  24 H :    0.227756
  25 H :    0.206094
  26 H :    0.231899
  27 N :   -0.837449
  28 C :   -0.357133
  29 H :    0.264289
  30 H :    0.277346
  31 C :   -0.341894
  32 H :    0.274360
  33 H :    0.262599
  34 C :   -0.323870
  35 H :    0.293179
  36 H :    0.282404
  37 H :    0.269175
  38 H :    0.268138
  39 H :    0.255911
Sum of atomic charges:    1.0000000

LOEWDIN ATOMIC CHARGES
----------------------
   0 C :   -0.451040
   1 H :    0.217010
   2 H :    0.227951
   3 H :    0.228437
   4 C :    0.125608
   5 O :   -0.411938
   6 N :   -0.307604
   7 C :   -0.245963
   8 H :    0.232678
   9 H :    0.240671
  10 C :   -0.240110
  11 H :    0.228735
  12 H :    0.251076
  13 C :   -0.253161
  14 H :    0.262178
  15 H :    0.230940
  16 C :    0.090907
  17 N :   -0.331028
  18 O :   -0.384178
  19 C :   -0.343605
  20 H :    0.205479
  21 H :    0.208167
  22 H :    0.240135
  23 C :   -0.353652
  24 H :    0.211301
  25 H :    0.207795
  26 H :    0.209182
  27 N :   -0.343444
  28 C :   -0.360920
  29 H :    0.233400
  30 H :    0.238558
  31 C :   -0.359812
  32 H :    0.235959
  33 H :    0.229703
  34 C :   -0.352172
  35 H :    0.250418
  36 H :    0.244956
  37 H :    0.230598
  38 H :    0.232012
  39 H :    0.224772

  Mayer bond orders larger than 0.100000
B(  0-C ,  1-H ) :   0.9555 B(  0-C ,  2-H ) :   0.9624 B(  0-C ,  3-H ) :   1.0024
B(  0-C ,  4-C ) :   0.3242 B(  0-C ,  6-N ) :  -0.1114 B(  0-C ,  7-C ) :  -0.1381
B(  4-C ,  5-O ) :   1.7096 B(  4-C ,  6-N ) :   1.1487 B(  4-C ,  7-C ) :   0.1228
B(  5-O ,  7-C ) :   0.1110 B(  5-O , 13-C ) :  -0.1057 B(  6-N ,  7-C ) :   0.8877
B(  6-N , 10-C ) :   0.8122 B(  7-C ,  8-H ) :   1.0216 B(  7-C ,  9-H ) :   1.0155
B(  7-C , 10-C ) :  -0.3166 B(  7-C , 13-C ) :   0.1198 B(  7-C , 16-C ) :   0.5372
B(  7-C , 17-N ) :  -0.1914 B( 10-C , 11-H ) :   1.1074 B( 10-C , 12-H ) :   0.8411
B( 10-C , 13-C ) :   0.7246 B( 11-H , 13-C ) :  -0.1445 B( 13-C , 14-H ) :   0.9500
B( 13-C , 15-H ) :   0.9784 B( 13-C , 27-N ) :   0.8376 B( 13-C , 28-C ) :  -0.1406
B( 13-C , 31-C ) :  -0.1266 B( 13-C , 34-C ) :  -0.1243 B( 16-C , 17-N ) :   1.3153
B( 16-C , 18-O ) :   1.7961 B( 17-N , 19-C ) :   0.8314 B( 17-N , 23-C ) :   0.8254
B( 19-C , 20-H ) :   0.9336 B( 19-C , 21-H ) :   0.9402 B( 19-C , 22-H ) :   0.9384
B( 23-C , 24-H ) :   0.9307 B( 23-C , 25-H ) :   0.9374 B( 23-C , 26-H ) :   0.9259
B( 27-N , 28-C ) :   0.9541 B( 27-N , 31-C ) :   0.9219 B( 27-N , 34-C ) :   1.0076
B( 28-C , 29-H ) :   0.9085 B( 28-C , 30-H ) :   0.8986 B( 28-C , 31-C ) :  -0.1403
B( 28-C , 34-C ) :  -0.1464 B( 28-C , 38-H ) :   0.9087 B( 31-C , 32-H ) :   0.9055
B( 31-C , 33-H ) :   0.9089 B( 31-C , 34-C ) :  -0.1545 B( 31-C , 37-H ) :   0.9051
B( 34-C , 35-H ) :   0.9006 B( 34-C , 36-H ) :   0.8861 B( 34-C , 39-H ) :   0.9089

Dispersion correction           -0.063869727
FINAL SINGLE POINT ENERGY      -747.728561642891

DIPOLE MOMENT
-------------
                                X             Y             Z
Electronic contribution:      2.71852       3.68371       2.60715
Nuclear contribution   :     -5.24522      -5.41870      -4.37114
                        -----------------------------------------
Total Dipole Moment    :     -2.52670      -1.73499      -1.76399
                        -----------------------------------------
Magnitude (a.u.)       :      3.53639
Magnitude (Debye)      :      8.98879

Dispersion correction in the Hessian             ... Starting D4

VIBRATIONAL FREQUENCIES
-----------------------

Scaling factor for frequencies =  1.000000000  (already applied!)

   0:         0.00 cm**-1
   1:         0.00 cm**-1
   2:         0.00 cm**-1
   3:         0.00 cm**-1
   4:         0.00 cm**-1
   5:         0.00 cm**-1
   6:        32.56 cm**-1
   7:        36.17 cm**-1
   8:        44.05 cm**-1
   9:        64.29 cm**-1
  10:        68.96 cm**-1
  11:        78.89 cm**-1
  12:        96.39 cm**-1
  13:       106.75 cm**-1
  14:       129.50 cm**-1
  15:       146.44 cm**-1
  16:       183.57 cm**-1
  17:       197.29 cm**-1
  18:       207.02 cm**-1
  19:       229.73 cm**-1
  20:       240.10 cm**-1
  21:       266.87 cm**-1
  22:       280.31 cm**-1
  23:       299.81 cm**-1
  24:       319.02 cm**-1
  25:       361.63 cm**-1
  26:       368.68 cm**-1
  27:       385.70 cm**-1
  28:       407.29 cm**-1
  29:       422.10 cm**-1
  30:       452.32 cm**-1
  31:       457.48 cm**-1
  32:       477.52 cm**-1
  33:       495.42 cm**-1
  34:       529.23 cm**-1
  35:       572.36 cm**-1
  36:       602.28 cm**-1
  37:       612.40 cm**-1
  38:       658.80 cm**-1
  39:       739.70 cm**-1
  40:       765.15 cm**-1
  41:       814.83 cm**-1
  42:       851.62 cm**-1
  43:       916.80 cm**-1
  44:       947.55 cm**-1
  45:       964.52 cm**-1
  46:       971.47 cm**-1
  47:       995.45 cm**-1
  48:       999.72 cm**-1
  49:      1053.36 cm**-1
  50:      1058.89 cm**-1
  51:      1069.72 cm**-1
  52:      1083.47 cm**-1
  53:      1084.21 cm**-1
  54:      1109.43 cm**-1
  55:      1129.00 cm**-1
  56:      1153.56 cm**-1
  57:      1156.95 cm**-1
  58:      1169.90 cm**-1
  59:      1178.98 cm**-1
  60:      1225.00 cm**-1
  61:      1256.48 cm**-1
  62:      1268.64 cm**-1
  63:      1278.22 cm**-1
  64:      1279.26 cm**-1
  65:      1304.40 cm**-1
  66:      1349.63 cm**-1
  67:      1368.58 cm**-1
  68:      1371.75 cm**-1
  69:      1382.91 cm**-1
  70:      1415.09 cm**-1
  71:      1433.07 cm**-1
  72:      1453.52 cm**-1
  73:      1456.26 cm**-1
  74:      1458.74 cm**-1
  75:      1464.93 cm**-1
  76:      1471.12 cm**-1
  77:      1484.03 cm**-1
  78:      1488.78 cm**-1
  79:      1492.60 cm**-1
  80:      1494.57 cm**-1
  81:      1495.54 cm**-1
  82:      1505.79 cm**-1
  83:      1508.73 cm**-1
  84:      1510.19 cm**-1
  85:      1512.78 cm**-1
  86:      1519.17 cm**-1
  87:      1521.37 cm**-1
  88:      1523.73 cm**-1
  89:      1527.73 cm**-1
  90:      1532.52 cm**-1
  91:      1534.55 cm**-1
  92:      1543.34 cm**-1
  93:      1559.22 cm**-1
  94:      1725.10 cm**-1
  95:      1734.72 cm**-1
  96:      3038.64 cm**-1
  97:      3047.75 cm**-1
  98:      3058.04 cm**-1
  99:      3071.47 cm**-1
 100:      3091.00 cm**-1
 101:      3093.64 cm**-1
 102:      3096.05 cm**-1
 103:      3101.23 cm**-1
 104:      3101.46 cm**-1
 105:      3104.39 cm**-1
 106:      3110.08 cm**-1
 107:      3119.46 cm**-1
 108:      3141.45 cm**-1
 109:      3144.29 cm**-1
 110:      3171.80 cm**-1
 111:      3174.62 cm**-1
 112:      3181.29 cm**-1
 113:      3185.89 cm**-1
 114:      3187.87 cm**-1
 115:      3191.18 cm**-1
 116:      3191.85 cm**-1
 117:      3197.74 cm**-1
 118:      3204.55 cm**-1
 119:      3227.72 cm**-1

IR SPECTRUM
-----------

 Mode   freq       eps      Int      T**2         TX        TY        TZ
       cm**-1   L/(mol*cm) km/mol    a.u.
----------------------------------------------------------------------------
  6:     32.56   0.000700    3.54  0.006705  ( 0.018022 -0.077426 -0.019639)
  7:     36.17   0.000190    0.96  0.001642  (-0.018799  0.024271 -0.026453)
  8:     44.05   0.001040    5.25  0.007365  ( 0.055379  0.039909  0.052018)
  9:     64.29   0.000274    1.39  0.001331  ( 0.024656  0.020537  0.017353)
 10:     68.96   0.000120    0.60  0.000541  ( 0.003145 -0.022202  0.006200)
 11:     78.89   0.000158    0.80  0.000624  (-0.012871 -0.021406 -0.000182)
 12:     96.39   0.000722    3.65  0.002339  (-0.040683 -0.022756 -0.012890)
 13:    106.75   0.001123    5.67  0.003282  (-0.013635  0.038065 -0.040586)
 14:    129.50   0.000907    4.59  0.002187  (-0.019376 -0.042355 -0.004160)
 15:    146.44   0.000275    1.39  0.000586  ( 0.020942 -0.011717  0.003160)
 16:    183.57   0.000025    0.13  0.000042  (-0.001514 -0.000184 -0.006327)
 17:    197.29   0.000995    5.03  0.001575  ( 0.017884  0.007427  0.034634)
 18:    207.02   0.000525    2.65  0.000791  ( 0.022946 -0.010803 -0.012170)
 19:    229.73   0.001625    8.21  0.002207  ( 0.038441  0.025222  0.009643)
 20:    240.10   0.000579    2.92  0.000752  ( 0.008899 -0.024917 -0.007220)
 21:    266.87   0.000367    1.86  0.000429  (-0.006674  0.010430  0.016613)
 22:    280.31   0.000091    0.46  0.000102  ( 0.006891  0.004077  0.006119)
 23:    299.81   0.000052    0.26  0.000054  (-0.006740 -0.002985  0.000096)
 24:    319.02   0.001039    5.25  0.001017  ( 0.007335  0.023440  0.020334)
 25:    361.63   0.000132    0.67  0.000114  (-0.006012 -0.008032 -0.003636)
 26:    368.68   0.000122    0.62  0.000103  (-0.009928 -0.001231 -0.001840)
 27:    385.70   0.003173   16.04  0.002567  (-0.047188  0.014556 -0.011351)
 28:    407.29   0.001159    5.86  0.000888  ( 0.012192 -0.027169 -0.001092)
 29:    422.10   0.000516    2.61  0.000381  (-0.016782 -0.009964  0.000718)
 30:    452.32   0.000007    0.03  0.000005  (-0.001774 -0.001167 -0.000331)
 31:    457.48   0.000576    2.91  0.000393  (-0.003007  0.007821 -0.017960)
 32:    477.52   0.001088    5.50  0.000711  (-0.022987 -0.010855  0.008036)
 33:    495.42   0.000157    0.79  0.000099  ( 0.008782  0.003207  0.003380)
 34:    529.23   0.001273    6.43  0.000750  ( 0.017800  0.020485 -0.003735)
 35:    572.36   0.000112    0.57  0.000061  (-0.000136  0.005529  0.005540)
 36:    602.28   0.003831   19.36  0.001985  ( 0.040786 -0.017825 -0.001907)
 37:    612.40   0.000833    4.21  0.000424  ( 0.001437  0.005325 -0.019851)
 38:    658.80   0.002987   15.10  0.001415  (-0.000891  0.025855  0.027307)
 39:    739.70   0.001196    6.04  0.000505  ( 0.001882  0.018025  0.013275)
 40:    765.15   0.000659    3.33  0.000269  ( 0.002074  0.010170  0.012683)
 41:    814.83   0.003502   17.70  0.001341  (-0.025423 -0.002650  0.026229)
 42:    851.62   0.000884    4.47  0.000324  (-0.005324  0.014950  0.008488)
 43:    916.80   0.006208   31.37  0.002113  (-0.044315 -0.008606  0.008677)
 44:    947.55   0.005046   25.50  0.001662  ( 0.026730  0.020804  0.022687)
 45:    964.52   0.000627    3.17  0.000203  ( 0.009249  0.009031  0.005973)
 46:    971.47   0.003629   18.34  0.001166  (-0.003406  0.031955 -0.011529)
 47:    995.45   0.001399    7.07  0.000439  ( 0.001607  0.011365  0.017516)
 48:    999.72   0.003311   16.73  0.001034  (-0.010983  0.029795  0.005014)
 49:   1053.36   0.003852   19.46  0.001141  ( 0.029307 -0.009970 -0.013517)
 50:   1058.89   0.000507    2.56  0.000149  ( 0.008891 -0.003564 -0.007595)
 51:   1069.72   0.001475    7.45  0.000430  ( 0.016305 -0.004749  0.011912)
 52:   1083.47   0.000001    0.01  0.000000  (-0.000209  0.000084 -0.000515)
 53:   1084.21   0.001787    9.03  0.000514  (-0.002997 -0.007916  0.021040)
 54:   1109.43   0.000128    0.65  0.000036  ( 0.001252  0.005753  0.001185)
 55:   1129.00   0.000225    1.14  0.000062  (-0.004247 -0.001815  0.006386)
 56:   1153.56   0.000312    1.58  0.000084  ( 0.006782  0.003023 -0.005412)
 57:   1156.95   0.015884   80.27  0.004284  ( 0.064560 -0.006768 -0.008397)
 58:   1169.90   0.012740   64.38  0.003398  ( 0.056298 -0.014743 -0.003396)
 59:   1178.98   0.000748    3.78  0.000198  (-0.011485 -0.004474 -0.006794)
 60:   1225.00   0.002528   12.78  0.000644  ( 0.019322  0.016422 -0.001005)
 61:   1256.48   0.006271   31.69  0.001557  (-0.003954  0.038795  0.006066)
 62:   1268.64   0.003142   15.88  0.000773  ( 0.003941 -0.024061 -0.013361)
 63:   1278.22   0.006719   33.95  0.001640  ( 0.001443 -0.034370 -0.021376)
 64:   1279.26   0.013111   66.26  0.003198  ( 0.046802 -0.028349  0.014290)
 65:   1304.40   0.000062    0.31  0.000015  (-0.001172  0.001341 -0.003401)
 66:   1349.63   0.000219    1.11  0.000051  (-0.004964 -0.001959  0.004706)
 67:   1368.58   0.002013   10.17  0.000459  (-0.009731 -0.018916 -0.002528)
 68:   1371.75   0.010023   50.65  0.002280  ( 0.045057 -0.001998 -0.015684)
 69:   1382.91   0.008658   43.75  0.001954  ( 0.001911  0.040158  0.018368)
 70:   1415.09   0.001301    6.58  0.000287  (-0.015860 -0.003558  0.004769)
 71:   1433.07   0.016810   84.95  0.003660  (-0.014973  0.054329  0.022014)
 72:   1453.52   0.013307   67.25  0.002857  ( 0.052676 -0.008827 -0.002089)
 73:   1456.26   0.007840   39.62  0.001680  ( 0.023263 -0.027173  0.020014)
 74:   1458.74   0.005018   25.36  0.001073  ( 0.012270  0.028161  0.011396)
 75:   1464.93   0.000520    2.63  0.000111  ( 0.001432 -0.010049 -0.002767)
 76:   1471.12   0.003434   17.36  0.000729  ( 0.003144  0.023977  0.011990)
 77:   1484.03   0.004261   21.53  0.000896  ( 0.027151 -0.007970 -0.009759)
 78:   1488.78   0.001176    5.94  0.000247  (-0.014562 -0.003223  0.004912)
 79:   1492.60   0.001700    8.59  0.000355  ( 0.010073  0.015559  0.003449)
 80:   1494.57   0.002109   10.66  0.000440  ( 0.020852  0.001693  0.001635)
 81:   1495.54   0.001805    9.12  0.000377  ( 0.000404  0.001925 -0.019309)
 82:   1505.79   0.000134    0.67  0.000028  ( 0.002643 -0.000927 -0.004452)
 83:   1508.73   0.001943    9.82  0.000402  ( 0.006861 -0.007445 -0.017301)
 84:   1510.19   0.001045    5.28  0.000216  ( 0.007235 -0.006865  0.010794)
 85:   1512.78   0.003038   15.35  0.000627  (-0.010126  0.008544 -0.021243)
 86:   1519.17   0.001581    7.99  0.000325  (-0.012785 -0.006632  0.010833)
 87:   1521.37   0.000813    4.11  0.000167  (-0.003836  0.006897 -0.010221)
 88:   1523.73   0.004782   24.16  0.000979  (-0.010360 -0.027632 -0.010413)
 89:   1527.73   0.002479   12.53  0.000506  ( 0.017021 -0.013482 -0.005904)
 90:   1532.52   0.011070   55.94  0.002254  (-0.039689 -0.017026 -0.019723)
 91:   1534.55   0.007178   36.28  0.001460  (-0.014053  0.035528 -0.000257)
 92:   1543.34   0.011596   58.60  0.002345  (-0.026589 -0.018111  0.036189)
 93:   1559.22   0.009474   47.88  0.001896  (-0.041400  0.012372 -0.005390)
 94:   1725.10   0.002242   11.33  0.000406  (-0.002522 -0.015219  0.012944)
 95:   1734.72   0.133493  674.62  0.024014  (-0.131469  0.010950  0.081304)
 96:   3038.64   0.006264   31.65  0.000643  ( 0.012681  0.011785 -0.018536)
 97:   3047.75   0.010447   52.80  0.001070  (-0.032303  0.000916 -0.005034)
 98:   3058.04   0.000523    2.64  0.000053  (-0.006047 -0.000370  0.004080)
 99:   3071.47   0.003605   18.22  0.000366  ( 0.013508 -0.004571 -0.012764)
100:   3091.00   0.000290    1.46  0.000029  (-0.004476  0.002243 -0.002048)
101:   3093.64   0.000385    1.95  0.000039  (-0.002395 -0.005516 -0.001645)
102:   3096.05   0.002774   14.02  0.000280  (-0.002682 -0.016487 -0.000792)
103:   3101.23   0.002023   10.22  0.000204  ( 0.004440  0.000457  0.013550)
104:   3101.46   0.006614   33.42  0.000665  ( 0.004933 -0.023202 -0.010140)
105:   3104.39   0.000834    4.22  0.000084  (-0.000816 -0.009121 -0.000042)
106:   3110.08   0.001873    9.47  0.000188  (-0.010255 -0.008571  0.003054)
107:   3119.46   0.000771    3.90  0.000077  ( 0.002671 -0.003018  0.007805)
108:   3141.45   0.002428   12.27  0.000241  (-0.013603  0.001816  0.007269)
109:   3144.29   0.000819    4.14  0.000081  (-0.005566 -0.006735 -0.002231)
110:   3171.80   0.002841   14.36  0.000280  (-0.012697  0.003485 -0.010305)
111:   3174.62   0.000406    2.05  0.000040  ( 0.002015 -0.004640 -0.003782)
112:   3181.29   0.000097    0.49  0.000010  ( 0.001851  0.000131 -0.002471)
113:   3185.89   0.000091    0.46  0.000009  (-0.001281 -0.000189  0.002684)
114:   3187.87   0.000552    2.79  0.000054  ( 0.005121  0.000979 -0.005186)
115:   3191.18   0.000387    1.96  0.000038  ( 0.001966 -0.004617 -0.003561)
116:   3191.85   0.000169    0.85  0.000017  (-0.002134  0.001599 -0.003064)
117:   3197.74   0.000144    0.73  0.000014  (-0.002626 -0.000755 -0.002566)
118:   3204.55   0.000387    1.96  0.000038  (-0.005536 -0.002161  0.001543)
119:   3227.72   0.000056    0.28  0.000005  ( 0.001832  0.000373  0.001370)

--------------------------
THERMOCHEMISTRY AT 298.15K
--------------------------

Temperature         ... 298.15 K
Pressure            ... 1.00 atm
Total Mass          ... 230.33 AMU

Throughout the following assumptions are being made:
  (1) The electronic state is orbitally nondegenerate
  (2) There are no thermally accessible electronically excited states
  (3) Hindered rotations indicated by low frequency modes are not
      treated as such but are treated as vibrations and this may
      cause some error
  (4) All equations used are the standard statistical mechanics
      equations for an ideal gas
  (5) All vibrations are strictly harmonic

freq.      32.56  E(vib)   ...       0.55
freq.      36.17  E(vib)   ...       0.54
freq.      44.05  E(vib)   ...       0.53
freq.      64.29  E(vib)   ...       0.51
freq.      68.96  E(vib)   ...       0.50
freq.      78.89  E(vib)   ...       0.49
freq.      96.39  E(vib)   ...       0.47
freq.     106.75  E(vib)   ...       0.45
freq.     129.50  E(vib)   ...       0.43
freq.     146.44  E(vib)   ...       0.41
freq.     183.57  E(vib)   ...       0.37
freq.     197.29  E(vib)   ...       0.35
freq.     207.02  E(vib)   ...       0.35
freq.     229.73  E(vib)   ...       0.32
freq.     240.10  E(vib)   ...       0.31
freq.     266.87  E(vib)   ...       0.29
freq.     280.31  E(vib)   ...       0.28
freq.     299.81  E(vib)   ...       0.26
freq.     319.02  E(vib)   ...       0.25
freq.     361.63  E(vib)   ...       0.22
freq.     368.68  E(vib)   ...       0.21
freq.     385.70  E(vib)   ...       0.20
freq.     407.29  E(vib)   ...       0.19
freq.     422.10  E(vib)   ...       0.18
freq.     452.32  E(vib)   ...       0.16
freq.     457.48  E(vib)   ...       0.16
freq.     477.52  E(vib)   ...       0.15
freq.     495.42  E(vib)   ...       0.14
freq.     529.23  E(vib)   ...       0.13
freq.     572.36  E(vib)   ...       0.11
freq.     602.28  E(vib)   ...       0.10
freq.     612.40  E(vib)   ...       0.10
freq.     658.80  E(vib)   ...       0.08
freq.     739.70  E(vib)   ...       0.06
freq.     765.15  E(vib)   ...       0.06
freq.     814.83  E(vib)   ...       0.05
freq.     851.62  E(vib)   ...       0.04
freq.     916.80  E(vib)   ...       0.03
freq.     947.55  E(vib)   ...       0.03
freq.     964.52  E(vib)   ...       0.03
freq.     971.47  E(vib)   ...       0.03
freq.     995.45  E(vib)   ...       0.02
freq.     999.72  E(vib)   ...       0.02
freq.    1053.36  E(vib)   ...       0.02
freq.    1058.89  E(vib)   ...       0.02
freq.    1069.72  E(vib)   ...       0.02
freq.    1083.47  E(vib)   ...       0.02
freq.    1084.21  E(vib)   ...       0.02
freq.    1109.43  E(vib)   ...       0.02
freq.    1129.00  E(vib)   ...       0.01
freq.    1153.56  E(vib)   ...       0.01
freq.    1156.95  E(vib)   ...       0.01
freq.    1169.90  E(vib)   ...       0.01
freq.    1178.98  E(vib)   ...       0.01
freq.    1225.00  E(vib)   ...       0.01
freq.    1256.48  E(vib)   ...       0.01
freq.    1268.64  E(vib)   ...       0.01
freq.    1278.22  E(vib)   ...       0.01
freq.    1279.26  E(vib)   ...       0.01
freq.    1304.40  E(vib)   ...       0.01
freq.    1349.63  E(vib)   ...       0.01
freq.    1368.58  E(vib)   ...       0.01
freq.    1371.75  E(vib)   ...       0.01
freq.    1382.91  E(vib)   ...       0.01
freq.    1415.09  E(vib)   ...       0.00
freq.    1433.07  E(vib)   ...       0.00
freq.    1453.52  E(vib)   ...       0.00
freq.    1456.26  E(vib)   ...       0.00
freq.    1458.74  E(vib)   ...       0.00
freq.    1464.93  E(vib)   ...       0.00
freq.    1471.12  E(vib)   ...       0.00
freq.    1484.03  E(vib)   ...       0.00
freq.    1488.78  E(vib)   ...       0.00
freq.    1492.60  E(vib)   ...       0.00
freq.    1494.57  E(vib)   ...       0.00
freq.    1495.54  E(vib)   ...       0.00
freq.    1505.79  E(vib)   ...       0.00
freq.    1508.73  E(vib)   ...       0.00
freq.    1510.19  E(vib)   ...       0.00
freq.    1512.78  E(vib)   ...       0.00
freq.    1519.17  E(vib)   ...       0.00
freq.    1521.37  E(vib)   ...       0.00
freq.    1523.73  E(vib)   ...       0.00
freq.    1527.73  E(vib)   ...       0.00
freq.    1532.52  E(vib)   ...       0.00
freq.    1534.55  E(vib)   ...       0.00
freq.    1543.34  E(vib)   ...       0.00
freq.    1559.22  E(vib)   ...       0.00
freq.    1725.10  E(vib)   ...       0.00
freq.    1734.72  E(vib)   ...       0.00
freq.    3038.64  E(vib)   ...       0.00
freq.    3047.75  E(vib)   ...       0.00
freq.    3058.04  E(vib)   ...       0.00
freq.    3071.47  E(vib)   ...       0.00
freq.    3091.00  E(vib)   ...       0.00
freq.    3093.64  E(vib)   ...       0.00
freq.    3096.05  E(vib)   ...       0.00
freq.    3101.23  E(vib)   ...       0.00
freq.    3101.46  E(vib)   ...       0.00
freq.    3104.39  E(vib)   ...       0.00
freq.    3110.08  E(vib)   ...       0.00
freq.    3119.46  E(vib)   ...       0.00
freq.    3141.45  E(vib)   ...       0.00
freq.    3144.29  E(vib)   ...       0.00
freq.    3171.80  E(vib)   ...       0.00
freq.    3174.62  E(vib)   ...       0.00
freq.    3181.29  E(vib)   ...       0.00
freq.    3185.89  E(vib)   ...       0.00
freq.    3187.87  E(vib)   ...       0.00
freq.    3191.18  E(vib)   ...       0.00
freq.    3191.85  E(vib)   ...       0.00
freq.    3197.74  E(vib)   ...       0.00
freq.    3204.55  E(vib)   ...       0.00
freq.    3227.72  E(vib)   ...       0.00

------------
INNER ENERGY
------------

The inner energy is: U= E(el) + E(ZPE) + E(vib) + E(rot) + E(trans)
    E(el)   - is the total energy from the electronic structure calculation
              = E(kin-el) + E(nuc-el) + E(el-el) + E(nuc-nuc)
    E(ZPE)  - the the zero temperature vibrational energy from the frequency calculation
    E(vib)  - the the finite temperature correction to E(ZPE) due to population
              of excited vibrational states
    E(rot)  - is the rotational thermal energy
    E(trans)- is the translational thermal energy

Summary of contributions to the inner energy U:
Electronic energy                ...   -747.72856164 Eh
Zero point energy                ...      0.36161519 Eh     226.92 kcal/mol
Thermal vibrational correction   ...      0.01668987 Eh      10.47 kcal/mol
Thermal rotational correction    ...      0.00141627 Eh       0.89 kcal/mol
Thermal translational correction ...      0.00141627 Eh       0.89 kcal/mol
-----------------------------------------------------------------------
Total thermal energy                   -747.34742404 Eh

Summary of corrections to the electronic energy:
(perhaps to be used in another calculation)
Total thermal correction                  0.01952241 Eh      12.25 kcal/mol
Non-thermal (ZPE) correction              0.36161519 Eh     226.92 kcal/mol
-----------------------------------------------------------------------
Total correction                          0.38113761 Eh     239.17 kcal/mol

Rotational constants in cm-1:     0.031085     0.008390     0.007581

                             ****ORCA TERMINATED NORMALLY****
TOTAL RUN TIME: 0 days 0 hours 55 minutes 20 seconds 910 msec
