                         Program Version 5.0.4 -  RELEASE  -
|  1> ! OPT FREQ B3LYP 6-31G(d) D4 AUTOAUX CPCM(water)
|  2>
|  3> %PAL NPROCS 4 END
|  4>
|  5> %maxcore 3375
|  6>
|  7> *xyzfile 0 1 /users/fjb15167/WWenergy/structures/Ns.xyz
|  8>
|  9>                          ****END OF INPUT****
 Total Charge           Charge          ....    0
 Multiplicity           Mult            ....    1
 Number of Electrons    NEL             ....   94
Dispersion correction           -0.040911592
FINAL SINGLE POINT ENERGY      -610.057741127617
Dispersion correction            ... Starting D4
Dispersion correction           -0.040644542
FINAL SINGLE POINT ENERGY      -610.058938970472
Dispersion correction            ... Starting D4
Dispersion correction           -0.040822563
FINAL SINGLE POINT ENERGY      -610.059345572395
Dispersion correction            ... Starting D4
FINAL SINGLE POINT ENERGY      -610.059437102499
FINAL SINGLE POINT ENERGY      -610.059487932172
FINAL SINGLE POINT ENERGY      -610.059529065650
FINAL SINGLE POINT ENERGY      -610.059543754495
FINAL SINGLE POINT ENERGY      -610.059553350608
FINAL SINGLE POINT ENERGY      -610.059561560671
FINAL SINGLE POINT ENERGY      -610.059570260522
FINAL SINGLE POINT ENERGY      -610.059575927668
FINAL SINGLE POINT ENERGY      -610.059584406521
FINAL SINGLE POINT ENERGY      -610.059594964815
FINAL SINGLE POINT ENERGY      -610.059612430971
Dispersion correction           -0.040974210
FINAL SINGLE POINT ENERGY      -610.059615439782
Dispersion correction            ... Starting D4
Dispersion correction           -0.040952221
FINAL SINGLE POINT ENERGY      -610.059619864815
Dispersion correction            ... Starting D4
                    ***********************HURRAY********************

CARTESIAN COORDINATES (ANGSTROEM)
---------------------------------
  C      0.987266    1.503313   -0.266997
  H      3.040792    1.051958    0.257159
  H      2.026058    1.512581    1.632772
  H      2.540589    2.755618    0.466651
  O      0.440757    2.443833   -0.851853
  C      2.230809    1.715094    0.574881
  N      0.485454    0.225070   -0.330140
  C     -0.634008   -0.063342   -1.229819
  H     -0.937921    0.874638   -1.695038
  H     -0.311560   -0.751427   -2.017236
  C      1.205622   -0.921276    0.214440
  H      1.579690   -0.680768    1.209153
  H      0.487027   -1.742658    0.297633
  O      2.333867   -1.299274   -0.551283
  H      2.019108   -1.676633   -1.390376
  C     -1.795274   -0.763126   -0.511616
  O     -2.044094   -1.945368   -0.787519
  N     -2.495816   -0.061703    0.416694
  C     -3.534045   -0.732222    1.192122
  H     -4.499648   -0.235542    1.038023
  H     -3.600852   -1.770599    0.872021
  H     -3.289456   -0.690731    2.260978
  C     -2.241900    1.322816    0.797364
  H     -1.741652    1.370627    1.773922
  H     -1.626330    1.839182    0.063378
  H     -3.200485    1.847940    0.876685

 Multiplicity           Mult            ....    1
 Number of Electrons    NEL             ....   94
 Basis Dimension        Dim             ....  196

ORBITAL ENERGIES
----------------

  NO   OCC          E(Eh)            E(eV)
   0   2.0000     -19.145015      -520.9624
   1   2.0000     -19.115461      -520.1581
   2   2.0000     -19.107010      -519.9282
   3   2.0000     -14.360614      -390.7722
   4   2.0000     -14.359190      -390.7334
   5   2.0000     -10.287549      -279.9384
   6   2.0000     -10.280032      -279.7339
   7   2.0000     -10.258305      -279.1427
   8   2.0000     -10.213093      -277.9124
   9   2.0000     -10.198727      -277.5215
  10   2.0000     -10.195492      -277.4334
  11   2.0000     -10.172572      -276.8097
  12   2.0000      -1.041637       -28.3444
  13   2.0000      -1.026489       -27.9322
  14   2.0000      -1.024109       -27.8674
  15   2.0000      -0.930472       -25.3194
  16   2.0000      -0.922654       -25.1067
  17   2.0000      -0.760238       -20.6871
  18   2.0000      -0.721158       -19.6237
  19   2.0000      -0.708233       -19.2720
  20   2.0000      -0.691078       -18.8052
  21   2.0000      -0.668264       -18.1844
  22   2.0000      -0.569572       -15.4988
  23   2.0000      -0.540143       -14.6980
  24   2.0000      -0.517992       -14.0953
  25   2.0000      -0.496623       -13.5138
  26   2.0000      -0.484493       -13.1837
  27   2.0000      -0.479852       -13.0574
  28   2.0000      -0.464854       -12.6493
  29   2.0000      -0.455962       -12.4073
  30   2.0000      -0.443586       -12.0706
  31   2.0000      -0.427907       -11.6439
  32   2.0000      -0.408463       -11.1148
  33   2.0000      -0.407835       -11.0978
  34   2.0000      -0.396073       -10.7777
  35   2.0000      -0.395721       -10.7681
  36   2.0000      -0.392839       -10.6897
  37   2.0000      -0.387348       -10.5403
  38   2.0000      -0.373970       -10.1762
  39   2.0000      -0.363210        -9.8835
  40   2.0000      -0.351414        -9.5625
  41   2.0000      -0.342608        -9.3228
  42   2.0000      -0.294731        -8.0200
  43   2.0000      -0.262485        -7.1426
  44   2.0000      -0.255543        -6.9537
  45   2.0000      -0.242049        -6.5865
  46   2.0000      -0.236001        -6.4219
  47   0.0000       0.014466         0.3936
  48   0.0000       0.024127         0.6565
  49   0.0000       0.079944         2.1754
  50   0.0000       0.102985         2.8024
  51   0.0000       0.120417         3.2767

MULLIKEN ATOMIC CHARGES
-----------------------
   0 C :    0.541758
   1 H :    0.195226
   2 H :    0.200001
   3 H :    0.181440
   4 O :   -0.525705
   5 C :   -0.564672
   6 N :   -0.385938
   7 C :   -0.260182
   8 H :    0.209278
   9 H :    0.184697
  10 C :    0.062588
  11 H :    0.187872
  12 H :    0.173541
  13 O :   -0.652172
  14 H :    0.438090
  15 C :    0.524291
  16 O :   -0.546341
  17 N :   -0.358354
  18 C :   -0.331677
  19 H :    0.173645
  20 H :    0.185024
  21 H :    0.172484
  22 C :   -0.345236
  23 H :    0.172488
  24 H :    0.193457
  25 H :    0.174398
Sum of atomic charges:    0.0000000

LOEWDIN ATOMIC CHARGES
----------------------
   0 C :    0.124324
   1 H :    0.155971
   2 H :    0.159408
   3 H :    0.150486
   4 O :   -0.324856
   5 C :   -0.395188
   6 N :   -0.088214
   7 C :   -0.181369
   8 H :    0.162353
   9 H :    0.145955
  10 C :   -0.055599
  11 H :    0.142873
  12 H :    0.133174
  13 O :   -0.422547
  14 H :    0.335808
  15 C :    0.093969
  16 O :   -0.343486
  17 N :   -0.066896
  18 C :   -0.279294
  19 H :    0.135527
  20 H :    0.147427
  21 H :    0.134875
  22 C :   -0.283898
  23 H :    0.133490
  24 H :    0.147962
  25 H :    0.137744

  Mayer bond orders larger than 0.100000
B(  0-C ,  4-O ) :   1.7640 B(  0-C ,  5-C ) :   0.9966 B(  0-C ,  6-N ) :   1.1300
B(  1-H ,  5-C ) :   0.9142 B(  2-H ,  5-C ) :   0.9206 B(  3-H ,  5-C ) :   0.9382
B(  6-N ,  7-C ) :   0.9379 B(  6-N , 10-C ) :   0.9464 B(  7-C ,  8-H ) :   0.8933
B(  7-C ,  9-H ) :   0.9170 B(  7-C , 15-C ) :   0.9371 B( 10-C , 11-H ) :   0.9216
B( 10-C , 12-H ) :   0.9161 B( 10-C , 13-O ) :   0.9836 B( 13-O , 14-H ) :   0.7599
B( 15-C , 16-O ) :   1.7429 B( 15-C , 17-N ) :   1.2085 B( 16-O , 17-N ) :   0.1029
B( 17-N , 18-C ) :   0.9467 B( 17-N , 22-C ) :   0.9500 B( 18-C , 19-H ) :   0.9365
B( 18-C , 20-H ) :   0.9248 B( 18-C , 21-H ) :   0.9363 B( 22-C , 23-H ) :   0.9319
B( 22-C , 24-H ) :   0.9047 B( 22-C , 25-H ) :   0.9338

Dispersion correction           -0.040940730
FINAL SINGLE POINT ENERGY      -610.059620494010

DIPOLE MOMENT
-------------
                                X             Y             Z
Electronic contribution:      1.73338      -2.02903      -5.52025
Nuclear contribution   :     -1.79058       2.10378       6.69521
                        -----------------------------------------
Total Dipole Moment    :     -0.05719       0.07475       1.17496
                        -----------------------------------------
Magnitude (a.u.)       :      1.17873
Magnitude (Debye)      :      2.99608

Dispersion correction in the Hessian             ... Starting D4

VIBRATIONAL FREQUENCIES
-----------------------

Scaling factor for frequencies =  1.000000000  (already applied!)

   0:         0.00 cm**-1
   1:         0.00 cm**-1
   2:         0.00 cm**-1
   3:         0.00 cm**-1
   4:         0.00 cm**-1
   5:         0.00 cm**-1
   6:        33.55 cm**-1
   7:        68.97 cm**-1
   8:        72.41 cm**-1
   9:        83.74 cm**-1
  10:       109.91 cm**-1
  11:       116.19 cm**-1
  12:       145.28 cm**-1
  13:       161.23 cm**-1
  14:       190.93 cm**-1
  15:       217.31 cm**-1
  16:       255.74 cm**-1
  17:       278.31 cm**-1
  18:       320.55 cm**-1
  19:       345.42 cm**-1
  20:       392.26 cm**-1
  21:       424.07 cm**-1
  22:       445.30 cm**-1
  23:       464.97 cm**-1
  24:       526.37 cm**-1
  25:       575.13 cm**-1
  26:       610.70 cm**-1
  27:       635.26 cm**-1
  28:       709.39 cm**-1
  29:       761.92 cm**-1
  30:       806.08 cm**-1
  31:       951.47 cm**-1
  32:       994.54 cm**-1
  33:      1000.65 cm**-1
  34:      1009.81 cm**-1
  35:      1049.73 cm**-1
  36:      1066.11 cm**-1
  37:      1088.86 cm**-1
  38:      1109.47 cm**-1
  39:      1136.04 cm**-1
  40:      1167.23 cm**-1
  41:      1182.68 cm**-1
  42:      1219.55 cm**-1
  43:      1262.66 cm**-1
  44:      1285.32 cm**-1
  45:      1306.10 cm**-1
  46:      1373.49 cm**-1
  47:      1397.00 cm**-1
  48:      1414.40 cm**-1
  49:      1435.82 cm**-1
  50:      1440.72 cm**-1
  51:      1458.22 cm**-1
  52:      1476.66 cm**-1
  53:      1489.54 cm**-1
  54:      1491.06 cm**-1
  55:      1499.15 cm**-1
  56:      1506.87 cm**-1
  57:      1509.28 cm**-1
  58:      1518.45 cm**-1
  59:      1529.48 cm**-1
  60:      1538.99 cm**-1
  61:      1556.32 cm**-1
  62:      1706.97 cm**-1
  63:      1718.54 cm**-1
  64:      3038.50 cm**-1
  65:      3045.45 cm**-1
  66:      3064.92 cm**-1
  67:      3086.99 cm**-1
  68:      3092.39 cm**-1
  69:      3094.56 cm**-1
  70:      3098.55 cm**-1
  71:      3133.43 cm**-1
  72:      3164.13 cm**-1
  73:      3169.15 cm**-1
  74:      3174.73 cm**-1
  75:      3193.90 cm**-1
  76:      3196.55 cm**-1
  77:      3722.10 cm**-1

IR SPECTRUM
-----------

 Mode   freq       eps      Int      T**2         TX        TY        TZ
       cm**-1   L/(mol*cm) km/mol    a.u.
----------------------------------------------------------------------------
  6:     33.55   0.001568    7.93  0.014586  ( 0.045686 -0.016113  0.110633)
  7:     68.97   0.000043    0.22  0.000196  (-0.003181  0.004301 -0.012951)
  8:     72.41   0.000584    2.95  0.002519  (-0.045550 -0.001477  0.021021)
  9:     83.74   0.001066    5.39  0.003974  ( 0.062602 -0.007386 -0.000388)
 10:    109.91   0.001703    8.61  0.004835  (-0.001657 -0.019226 -0.066802)
 11:    116.19   0.002264   11.44  0.006082  ( 0.066783 -0.006473 -0.039746)
 12:    145.28   0.001284    6.49  0.002758  ( 0.044516 -0.012044  0.025122)
 13:    161.23   0.000043    0.22  0.000082  (-0.000173 -0.006447 -0.006391)
 14:    190.93   0.000039    0.20  0.000063  (-0.001665  0.005079  0.005910)
 15:    217.31   0.000973    4.92  0.001397  (-0.008842  0.003483 -0.036152)
 16:    255.74   0.002877   14.54  0.003511  ( 0.058462  0.003408  0.009027)
 17:    278.31   0.003983   20.13  0.004466  ( 0.001656 -0.059948  0.029491)
 18:    320.55   0.026430  133.57  0.025731  ( 0.007448 -0.155305  0.039442)
 19:    345.42   0.007165   36.21  0.006473  ( 0.017488  0.061362 -0.049012)
 20:    392.26   0.006154   31.10  0.004896  (-0.026552  0.058094  0.028570)
 21:    424.07   0.001006    5.08  0.000740  ( 0.009120  0.025378 -0.003576)
 22:    445.30   0.003935   19.89  0.002758  ( 0.020657 -0.047416  0.009097)
 23:    464.97   0.003437   17.37  0.002307  ( 0.030076  0.031465 -0.020309)
 24:    526.37   0.005432   27.45  0.003220  ( 0.034620 -0.012246  0.043266)
 25:    575.13   0.002988   15.10  0.001621  (-0.025351 -0.026555  0.016531)
 26:    610.70   0.005475   27.67  0.002798  (-0.028209  0.007548  0.044105)
 27:    635.26   0.009503   48.02  0.004668  ( 0.002017 -0.066127  0.017066)
 28:    709.39   0.001762    8.90  0.000775  (-0.003385 -0.010524  0.025551)
 29:    761.92   0.004170   21.07  0.001708  ( 0.027695  0.015314 -0.026576)
 30:    806.08   0.006486   32.78  0.002511  (-0.035190  0.034097  0.010497)
 31:    951.47   0.003534   17.86  0.001159  ( 0.017675  0.023646 -0.016956)
 32:    994.54   0.024443  123.52  0.007670  (-0.074220  0.041503  0.020940)
 33:   1000.65   0.008301   41.95  0.002589  (-0.016099 -0.035063  0.033168)
 34:   1009.81   0.006550   33.10  0.002024  ( 0.019909  0.038609  0.011710)
 35:   1049.73   0.046564  235.32  0.013843  ( 0.081843 -0.058231 -0.061265)
 36:   1066.11   0.004355   22.01  0.001275  (-0.019125  0.011763  0.027762)
 37:   1088.86   0.002551   12.89  0.000731  ( 0.008700  0.025500 -0.002279)
 38:   1109.47   0.010198   51.54  0.002868  ( 0.026413 -0.041467 -0.021242)
 39:   1136.04   0.000451    2.28  0.000124  ( 0.003428  0.009060  0.005485)
 40:   1167.23   0.012276   62.04  0.003282  (-0.032357  0.042945  0.019765)
 41:   1182.68   0.000462    2.34  0.000122  ( 0.003325 -0.010350 -0.001950)
 42:   1219.55   0.008303   41.96  0.002125  ( 0.002005 -0.002472 -0.045983)
 43:   1262.66   0.035984  181.85  0.008893  ( 0.031758  0.085825  0.022777)
 44:   1285.32   0.012536   63.35  0.003044  ( 0.037985  0.021747 -0.033584)
 45:   1306.10   0.018810   95.06  0.004494  (-0.065348 -0.004029 -0.014405)
 46:   1373.49   0.002332   11.79  0.000530  ( 0.000609  0.023005 -0.000543)
 47:   1397.00   0.007813   39.48  0.001745  (-0.014873 -0.034067  0.019065)
 48:   1414.40   0.012419   62.76  0.002740  ( 0.050173  0.009785  0.011266)
 49:   1435.82   0.017726   89.58  0.003853  ( 0.008130  0.061479  0.002629)
 50:   1440.72   0.022631  114.37  0.004902  ( 0.026023 -0.055614 -0.033642)
 51:   1458.22   0.020150  101.83  0.004312  ( 0.050483 -0.012910 -0.039962)
 52:   1476.66   0.030152  152.38  0.006372  ( 0.050459  0.061839 -0.001375)
 53:   1489.54   0.004335   21.91  0.000908  ( 0.025711 -0.015445  0.002937)
 54:   1491.06   0.003182   16.08  0.000666  (-0.015705  0.009753 -0.018003)
 55:   1499.15   0.002366   11.96  0.000493  ( 0.006667  0.011640 -0.017681)
 56:   1506.87   0.002516   12.72  0.000521  ( 0.015237  0.016957  0.001195)
 57:   1509.28   0.004348   21.98  0.000899  (-0.015380 -0.011859 -0.022845)
 58:   1518.45   0.004046   20.45  0.000831  ( 0.026766 -0.010504  0.002172)
 59:   1529.48   0.005289   26.73  0.001079  (-0.013568  0.016634 -0.024867)
 60:   1538.99   0.004408   22.27  0.000894  ( 0.020106  0.022096  0.001132)
 61:   1556.32   0.015761   79.65  0.003160  (-0.038512  0.000763  0.040947)
 62:   1706.97   0.158783  802.42  0.029028  ( 0.022407 -0.157681 -0.060522)
 63:   1718.54   0.065110  329.04  0.011823  (-0.031671  0.085676 -0.058990)
 64:   3038.50   0.007676   38.79  0.000788  ( 0.008477  0.022871  0.013910)
 65:   3045.45   0.018170   91.82  0.001862  ( 0.023323 -0.010656 -0.034703)
 66:   3064.92   0.000408    2.06  0.000042  (-0.003702 -0.001454 -0.005070)
 67:   3086.99   0.007799   39.41  0.000788  ( 0.007330  0.006424 -0.026333)
 68:   3092.39   0.006286   31.76  0.000634  ( 0.007867  0.023587  0.004006)
 69:   3094.56   0.016940   85.61  0.001708  ( 0.033133 -0.012607  0.021249)
 70:   3098.55   0.001053    5.32  0.000106  (-0.008784  0.004564  0.002838)
 71:   3133.43   0.001061    5.36  0.000106  ( 0.007167  0.002980 -0.006740)
 72:   3164.13   0.001730    8.74  0.000171  ( 0.011995  0.002986 -0.004220)
 73:   3169.15   0.005145   26.00  0.000507  (-0.011637 -0.010928 -0.015867)
 74:   3174.73   0.001962    9.91  0.000193  (-0.001123  0.011726 -0.007353)
 75:   3193.90   0.000901    4.55  0.000088  (-0.005565 -0.007528 -0.000599)
 76:   3196.55   0.000530    2.68  0.000052  ( 0.005010 -0.003484  0.003806)
 77:   3722.10   0.012419   62.76  0.001041  ( 0.000627  0.016841  0.027518)

--------------------------
THERMOCHEMISTRY AT 298.15K
--------------------------

Temperature         ... 298.15 K
Pressure            ... 1.00 atm
Total Mass          ... 174.20 AMU

Throughout the following assumptions are being made:
  (1) The electronic state is orbitally nondegenerate
  (2) There are no thermally accessible electronically excited states
  (3) Hindered rotations indicated by low frequency modes are not
      treated as such but are treated as vibrations and this may
      cause some error
  (4) All equations used are the standard statistical mechanics
      equations for an ideal gas
  (5) All vibrations are strictly harmonic

freq.      33.55  E(vib)   ...       0.55
freq.      68.97  E(vib)   ...       0.50
freq.      72.41  E(vib)   ...       0.49
freq.      83.74  E(vib)   ...       0.48
freq.     109.91  E(vib)   ...       0.45
freq.     116.19  E(vib)   ...       0.44
freq.     145.28  E(vib)   ...       0.41
freq.     161.23  E(vib)   ...       0.39
freq.     190.93  E(vib)   ...       0.36
freq.     217.31  E(vib)   ...       0.34
freq.     255.74  E(vib)   ...       0.30
freq.     278.31  E(vib)   ...       0.28
freq.     320.55  E(vib)   ...       0.25
freq.     345.42  E(vib)   ...       0.23
freq.     392.26  E(vib)   ...       0.20
freq.     424.07  E(vib)   ...       0.18
freq.     445.30  E(vib)   ...       0.17
freq.     464.97  E(vib)   ...       0.16
freq.     526.37  E(vib)   ...       0.13
freq.     575.13  E(vib)   ...       0.11
freq.     610.70  E(vib)   ...       0.10
freq.     635.26  E(vib)   ...       0.09
freq.     709.39  E(vib)   ...       0.07
freq.     761.92  E(vib)   ...       0.06
freq.     806.08  E(vib)   ...       0.05
freq.     951.47  E(vib)   ...       0.03
freq.     994.54  E(vib)   ...       0.02
freq.    1000.65  E(vib)   ...       0.02
freq.    1009.81  E(vib)   ...       0.02
freq.    1049.73  E(vib)   ...       0.02
freq.    1066.11  E(vib)   ...       0.02
freq.    1088.86  E(vib)   ...       0.02
freq.    1109.47  E(vib)   ...       0.02
freq.    1136.04  E(vib)   ...       0.01
freq.    1167.23  E(vib)   ...       0.01
freq.    1182.68  E(vib)   ...       0.01
freq.    1219.55  E(vib)   ...       0.01
freq.    1262.66  E(vib)   ...       0.01
freq.    1285.32  E(vib)   ...       0.01
freq.    1306.10  E(vib)   ...       0.01
freq.    1373.49  E(vib)   ...       0.01
freq.    1397.00  E(vib)   ...       0.00
freq.    1414.40  E(vib)   ...       0.00
freq.    1435.82  E(vib)   ...       0.00
freq.    1440.72  E(vib)   ...       0.00
freq.    1458.22  E(vib)   ...       0.00
freq.    1476.66  E(vib)   ...       0.00
freq.    1489.54  E(vib)   ...       0.00
freq.    1491.06  E(vib)   ...       0.00
freq.    1499.15  E(vib)   ...       0.00
freq.    1506.87  E(vib)   ...       0.00
freq.    1509.28  E(vib)   ...       0.00
freq.    1518.45  E(vib)   ...       0.00
freq.    1529.48  E(vib)   ...       0.00
freq.    1538.99  E(vib)   ...       0.00
freq.    1556.32  E(vib)   ...       0.00
freq.    1706.97  E(vib)   ...       0.00
freq.    1718.54  E(vib)   ...       0.00
freq.    3038.50  E(vib)   ...       0.00
freq.    3045.45  E(vib)   ...       0.00
freq.    3064.92  E(vib)   ...       0.00
freq.    3086.99  E(vib)   ...       0.00
freq.    3092.39  E(vib)   ...       0.00
freq.    3094.56  E(vib)   ...       0.00
freq.    3098.55  E(vib)   ...       0.00
freq.    3133.43  E(vib)   ...       0.00
freq.    3164.13  E(vib)   ...       0.00
freq.    3169.15  E(vib)   ...       0.00
freq.    3174.73  E(vib)   ...       0.00
freq.    3193.90  E(vib)   ...       0.00
freq.    3196.55  E(vib)   ...       0.00
freq.    3722.10  E(vib)   ...       0.00

------------
INNER ENERGY
------------

The inner energy is: U= E(el) + E(ZPE) + E(vib) + E(rot) + E(trans)
    E(el)   - is the total energy from the electronic structure calculation
              = E(kin-el) + E(nuc-el) + E(el-el) + E(nuc-nuc)
    E(ZPE)  - the the zero temperature vibrational energy from the frequency calculation
    E(vib)  - the the finite temperature correction to E(ZPE) due to population
              of excited vibrational states
    E(rot)  - is the rotational thermal energy
    E(trans)- is the translational thermal energy

Summary of contributions to the inner energy U:
Electronic energy                ...   -610.05962049 Eh
Zero point energy                ...      0.22079436 Eh     138.55 kcal/mol
Thermal vibrational correction   ...      0.01125316 Eh       7.06 kcal/mol
Thermal rotational correction    ...      0.00141627 Eh       0.89 kcal/mol
Thermal translational correction ...      0.00141627 Eh       0.89 kcal/mol
-----------------------------------------------------------------------
Total thermal energy                   -609.82474043 Eh

Summary of corrections to the electronic energy:
(perhaps to be used in another calculation)
Total thermal correction                  0.01408570 Eh       8.84 kcal/mol
Non-thermal (ZPE) correction              0.22079436 Eh     138.55 kcal/mol
-----------------------------------------------------------------------
Total correction                          0.23488006 Eh     147.39 kcal/mol

--------
ENTHALPY
--------

The enthalpy is H = U + kB*T
                kB is Boltzmann's constant
Total free energy                 ...   -609.82474043 Eh
Thermal Enthalpy correction       ...      0.00094421 Eh       0.59 kcal/mol
-----------------------------------------------------------------------
Total Enthalpy                    ...   -609.82379622 Eh

Note: Only C1 symmetry has been detected, increase convergence thresholds
      if your molecule has a higher symmetry. Symmetry factor of 1.0 is
      used for the rotational entropy correction.

Note: Rotational entropy computed according to Herzberg
Infrared and Raman Spectra, Chapter V,1, Van Nostrand Reinhold, 1945
Point Group:  C1, Symmetry Number:   1
Rotational constants in cm-1:     0.044050     0.021602     0.017060

Vibrational entropy computed according to the QRRHO of S. Grimme
Chem.Eur.J. 2012 18 9955

-------
ENTROPY
-------

The entropy contributions are T*S = T*(S(el)+S(vib)+S(rot)+S(trans))
     S(el)   - electronic entropy
     S(vib)  - vibrational entropy
     S(rot)  - rotational entropy
     S(trans)- translational entropy
The entropies will be listed as multiplied by the temperature to get
units of energy

Electronic entropy                ...      0.00000000 Eh      0.00 kcal/mol
Vibrational entropy               ...      0.02018874 Eh     12.67 kcal/mol

                             ****ORCA TERMINATED NORMALLY****
TOTAL RUN TIME: 0 days 0 hours 25 minutes 0 seconds 510 msec
