                         Program Version 5.0.4 -  RELEASE  -
|  1> ! OPT FREQ B3LYP 6-31G(d) D4 AUTOAUX CPCM(water)
|  2>
|  3> %PAL NPROCS 4 END
|  4>
|  5> %maxcore 3375
|  6>
|  7> *xyzfile 0 1 /users/fjb15167/WWenergy/structures/Nfnap.xyz
|  8>
|  9>                          ****END OF INPUT****
 Total Charge           Charge          ....    0
 Multiplicity           Mult            ....    1
 Number of Electrons    NEL             ....  152
Dispersion correction           -0.094968134
FINAL SINGLE POINT ENERGY      -919.361548688426
Dispersion correction            ... Starting D4
Dispersion correction           -0.092630771
FINAL SINGLE POINT ENERGY      -919.362458861099
Dispersion correction            ... Starting D4
Dispersion correction           -0.094648758
FINAL SINGLE POINT ENERGY      -919.362422540314
Dispersion correction            ... Starting D4
FINAL SINGLE POINT ENERGY      -919.362855906524
FINAL SINGLE POINT ENERGY      -919.362782854611
FINAL SINGLE POINT ENERGY      -919.363181106544
FINAL SINGLE POINT ENERGY      -919.363213564297
FINAL SINGLE POINT ENERGY      -919.363239508954
FINAL SINGLE POINT ENERGY      -919.363258966877
FINAL SINGLE POINT ENERGY      -919.363266848411
FINAL SINGLE POINT ENERGY      -919.363444764894
FINAL SINGLE POINT ENERGY      -919.363440404223
FINAL SINGLE POINT ENERGY      -919.363474199437
FINAL SINGLE POINT ENERGY      -919.363485059635
FINAL SINGLE POINT ENERGY      -919.363487504026
FINAL SINGLE POINT ENERGY      -919.363488438394
FINAL SINGLE POINT ENERGY      -919.363489489715
Dispersion correction           -0.093639855
FINAL SINGLE POINT ENERGY      -919.363489975932
Dispersion correction            ... Starting D4
Dispersion correction           -0.093618086
FINAL SINGLE POINT ENERGY      -919.363489648244
Dispersion correction            ... Starting D4
                    ***********************HURRAY********************

CARTESIAN COORDINATES (ANGSTROEM)
---------------------------------
  C      4.429064   -0.048392    0.314473
  H      4.771475   -0.928274   -0.240699
  H      4.189661   -0.369012    1.334835
  H      5.237625    0.682682    0.361251
  C      3.245629    0.619844   -0.364511
  O      3.308697    1.807138   -0.706753
  N      2.119135   -0.125581   -0.589371
  C      2.023252   -1.554909   -0.302642
  H      2.166114   -2.135550   -1.220831
  H      2.802892   -1.846100    0.401289
  C      0.648107   -1.986671    0.232603
  N      0.216616   -1.471730    1.410400
  O     -0.020710   -2.786044   -0.434756
  C      1.001864   -0.628703    2.301524
  H      0.669822    0.414148    2.246092
  H      0.872817   -0.986921    3.329099
  H      2.061246   -0.675396    2.060501
  C     -1.144691   -1.746365    1.856115
  H     -1.627315   -0.807070    2.145583
  H     -1.701444   -2.203018    1.040090
  H     -1.139047   -2.422090    2.721122
  C      1.057812    0.449703   -1.437141
  H      1.527819    1.233924   -2.034083
  H      0.731955   -0.334510   -2.121497
  C     -0.099070    1.041637   -0.647713
  C     -1.440881    0.551673   -0.751076
  C      0.174868    2.097325    0.204040
  C     -1.831879   -0.504049   -1.622452
  C     -2.458896    1.153144    0.067782
  C     -0.830883    2.690514    0.999124
  H      1.192204    2.472082    0.259527
  C     -3.135351   -0.947376   -1.671467
  H     -1.096219   -0.987604   -2.252477
  C     -3.793364    0.668626   -0.003576
  C     -2.122672    2.221388    0.939168
  H     -0.575013    3.516044    1.658096
  C     -4.129986   -0.360039   -0.853024
  H     -3.402506   -1.758010   -2.344379
  H     -4.545812    1.134132    0.628977
  H     -2.906250    2.663253    1.550183
  H     -5.153684   -0.721841   -0.900428

 Multiplicity           Mult            ....    1
 Number of Electrons    NEL             ....  152
 Basis Dimension        Dim             ....  334

ORBITAL ENERGIES
----------------

  NO   OCC          E(Eh)            E(eV)
   0   2.0000     -19.109967      -520.0086
   1   2.0000     -19.106742      -519.9209
   2   2.0000     -14.361636      -390.8000
   3   2.0000     -14.358868      -390.7247
   4   2.0000     -10.284506      -279.8556
   5   2.0000     -10.279925      -279.7310
   6   2.0000     -10.218332      -278.0549
   7   2.0000     -10.209832      -277.8236
   8   2.0000     -10.200354      -277.5657
   9   2.0000     -10.193683      -277.3842
  10   2.0000     -10.190587      -277.3000
  11   2.0000     -10.189186      -277.2618
  12   2.0000     -10.188039      -277.2306
  13   2.0000     -10.178467      -276.9702
  14   2.0000     -10.178269      -276.9648
  15   2.0000     -10.177887      -276.9544
  16   2.0000     -10.177717      -276.9498
  17   2.0000     -10.177520      -276.9444
  18   2.0000     -10.177247      -276.9370
  19   2.0000     -10.174486      -276.8618
  20   2.0000     -10.174115      -276.8517
  21   2.0000      -1.032285       -28.0899
  22   2.0000      -1.026383       -27.9293
  23   2.0000      -0.935784       -25.4640
  24   2.0000      -0.925621       -25.1874
  25   2.0000      -0.867548       -23.6072
  26   2.0000      -0.815645       -22.1948
  27   2.0000      -0.781710       -21.2714
  28   2.0000      -0.744310       -20.2537
  29   2.0000      -0.742892       -20.2151
  30   2.0000      -0.733540       -19.9606
  31   2.0000      -0.717129       -19.5141
  32   2.0000      -0.709038       -19.2939
  33   2.0000      -0.681369       -18.5410
  34   2.0000      -0.669963       -18.2306
  35   2.0000      -0.615157       -16.7393
  36   2.0000      -0.606117       -16.4933
  37   2.0000      -0.579901       -15.7799
  38   2.0000      -0.551642       -15.0109
  39   2.0000      -0.538196       -14.6451
  40   2.0000      -0.509738       -13.8707
  41   2.0000      -0.506792       -13.7905
  42   2.0000      -0.501367       -13.6429
  43   2.0000      -0.491354       -13.3704
  44   2.0000      -0.483257       -13.1501
  45   2.0000      -0.474351       -12.9077
  46   2.0000      -0.465262       -12.6604
  47   2.0000      -0.451688       -12.2911
  48   2.0000      -0.446273       -12.1437
  49   2.0000      -0.436452       -11.8765
  50   2.0000      -0.428981       -11.6732
  51   2.0000      -0.420606       -11.4453
  52   2.0000      -0.410287       -11.1645
  53   2.0000      -0.404515       -11.0074
  54   2.0000      -0.402466       -10.9516
  55   2.0000      -0.397969       -10.8293
  56   2.0000      -0.396852       -10.7989
  57   2.0000      -0.394950       -10.7471
  58   2.0000      -0.392174       -10.6716
  59   2.0000      -0.391084       -10.6419
  60   2.0000      -0.378966       -10.3122
  61   2.0000      -0.372322       -10.1314
  62   2.0000      -0.372167       -10.1272
  63   2.0000      -0.362201        -9.8560
  64   2.0000      -0.358119        -9.7449
  65   2.0000      -0.350895        -9.5483
  66   2.0000      -0.329446        -8.9647
  67   2.0000      -0.322557        -8.7772
  68   2.0000      -0.318540        -8.6679
  69   2.0000      -0.276917        -7.5353
  70   2.0000      -0.260606        -7.0914
  71   2.0000      -0.248326        -6.7573
  72   2.0000      -0.242689        -6.6039
  73   2.0000      -0.240810        -6.5528
  74   2.0000      -0.232602        -6.3294
  75   2.0000      -0.206611        -5.6222
  76   0.0000      -0.035264        -0.9596
  77   0.0000      -0.005278        -0.1436
  78   0.0000       0.018402         0.5007
  79   0.0000       0.025202         0.6858
  80   0.0000       0.033887         0.9221

MULLIKEN ATOMIC CHARGES
-----------------------
   0 C :   -0.574184
   1 H :    0.197086
   2 H :    0.204111
   3 H :    0.183293
   4 C :    0.540754
   5 O :   -0.536108
   6 N :   -0.362591
   7 C :   -0.257348
   8 H :    0.185139
   9 H :    0.210913
  10 C :    0.526274
  11 N :   -0.349150
  12 O :   -0.542694
  13 C :   -0.337821
  14 H :    0.180421
  15 H :    0.176238
  16 H :    0.182928
  17 C :   -0.332094
  18 H :    0.173320
  19 H :    0.184985
  20 H :    0.169216
  21 C :   -0.260054
  22 H :    0.189569
  23 H :    0.185126
  24 C :    0.098103
  25 C :    0.074939
  26 C :   -0.211900
  27 C :   -0.199019
  28 C :    0.123535
  29 C :   -0.148771
  30 H :    0.155127
  31 C :   -0.162223
  32 H :    0.155811
  33 C :   -0.216617
  34 C :   -0.211990
  35 H :    0.151217
  36 C :   -0.152296
  37 H :    0.149959
  38 H :    0.152902
  39 H :    0.152807
  40 H :    0.151088
Sum of atomic charges:    0.0000000

LOEWDIN ATOMIC CHARGES
----------------------
   0 C :   -0.395847
   1 H :    0.156359
   2 H :    0.156264
   3 H :    0.151559
   4 C :    0.115599
   5 O :   -0.335250
   6 N :   -0.069909
   7 C :   -0.178202
   8 H :    0.145599
   9 H :    0.162276
  10 C :    0.094937
  11 N :   -0.059838
  12 O :   -0.333530
  13 C :   -0.277815
  14 H :    0.137777
  15 H :    0.138656
  16 H :    0.142404
  17 C :   -0.278602
  18 H :    0.137222
  19 H :    0.147863
  20 H :    0.132437
  21 C :   -0.152055
  22 H :    0.154572
  23 H :    0.142558
  24 C :   -0.027522
  25 C :   -0.020561
  26 C :   -0.138751
  27 C :   -0.129933
  28 C :   -0.019787
  29 C :   -0.140708
  30 H :    0.144145
  31 C :   -0.141606
  32 H :    0.141581
  33 C :   -0.133548
  34 C :   -0.134077
  35 H :    0.141435
  36 C :   -0.140859
  37 H :    0.140720
  38 H :    0.141472
  39 H :    0.141660
  40 H :    0.141307

  Mayer bond orders larger than 0.100000
B(  0-C ,  1-H ) :   0.9213 B(  0-C ,  2-H ) :   0.9141 B(  0-C ,  3-H ) :   0.9368
B(  0-C ,  4-C ) :   0.9937 B(  4-C ,  5-O ) :   1.7402 B(  4-C ,  6-N ) :   1.1572
B(  6-N ,  7-C ) :   0.9498 B(  6-N , 21-C ) :   0.9299 B(  7-C ,  8-H ) :   0.9128
B(  7-C ,  9-H ) :   0.8988 B(  7-C , 10-C ) :   0.9355 B( 10-C , 11-N ) :   1.2050
B( 10-C , 12-O ) :   1.7458 B( 11-N , 12-O ) :   0.1009 B( 11-N , 13-C ) :   0.9527
B( 11-N , 17-C ) :   0.9442 B( 13-C , 14-H ) :   0.9160 B( 13-C , 15-H ) :   0.9333
B( 13-C , 16-H ) :   0.9252 B( 17-C , 18-H ) :   0.9313 B( 17-C , 19-H ) :   0.9245
B( 17-C , 20-H ) :   0.9358 B( 21-C , 22-H ) :   0.9057 B( 21-C , 23-H ) :   0.9075
B( 21-C , 24-C ) :   0.9641 B( 24-C , 25-C ) :   1.2717 B( 24-C , 26-C ) :   1.5179
B( 25-C , 27-C ) :   1.2782 B( 25-C , 28-C ) :   1.2955 B( 26-C , 29-C ) :   1.2992
B( 26-C , 30-H ) :   0.9014 B( 27-C , 31-C ) :   1.5384 B( 27-C , 32-H ) :   0.9053
B( 28-C , 33-C ) :   1.2759 B( 28-C , 34-C ) :   1.2805 B( 29-C , 34-C ) :   1.5231
B( 29-C , 35-H ) :   0.9266 B( 31-C , 36-C ) :   1.3168 B( 31-C , 37-H ) :   0.9269
B( 33-C , 36-C ) :   1.5378 B( 33-C , 38-H ) :   0.9204 B( 34-C , 39-H ) :   0.9207
B( 36-C , 40-H ) :   0.9265

Dispersion correction           -0.093603897
FINAL SINGLE POINT ENERGY      -919.363489406132

DIPOLE MOMENT
-------------
                                X             Y             Z
Electronic contribution:     -4.41601       3.44356      -6.90639
Nuclear contribution   :      4.64940      -3.99826       8.53610
                        -----------------------------------------
Total Dipole Moment    :      0.23339      -0.55470       1.62971
                        -----------------------------------------
Magnitude (a.u.)       :      1.73727
Magnitude (Debye)      :      4.41580

Dispersion correction in the Hessian             ... Starting D4

VIBRATIONAL FREQUENCIES
-----------------------

Scaling factor for frequencies =  1.000000000  (already applied!)

   0:         0.00 cm**-1
   1:         0.00 cm**-1
   2:         0.00 cm**-1
   3:         0.00 cm**-1
   4:         0.00 cm**-1
   5:         0.00 cm**-1
   6:        26.27 cm**-1
   7:        42.20 cm**-1
   8:        51.15 cm**-1
   9:        66.94 cm**-1
  10:        79.12 cm**-1
  11:        99.76 cm**-1
  12:       109.07 cm**-1
  13:       120.75 cm**-1
  14:       133.76 cm**-1
  15:       155.54 cm**-1
  16:       166.01 cm**-1
  17:       186.52 cm**-1
  18:       194.94 cm**-1
  19:       206.29 cm**-1
  20:       252.44 cm**-1
  21:       259.69 cm**-1
  22:       279.21 cm**-1
  23:       312.20 cm**-1
  24:       346.15 cm**-1
  25:       386.85 cm**-1
  26:       412.45 cm**-1
  27:       420.32 cm**-1
  28:       433.29 cm**-1
  29:       457.29 cm**-1
  30:       479.58 cm**-1
  31:       495.27 cm**-1
  32:       504.32 cm**-1
  33:       517.94 cm**-1
  34:       556.52 cm**-1
  35:       568.03 cm**-1
  36:       593.93 cm**-1
  37:       619.81 cm**-1
  38:       623.68 cm**-1
  39:       662.76 cm**-1
  40:       699.66 cm**-1
  41:       735.00 cm**-1
  42:       747.53 cm**-1
  43:       757.58 cm**-1
  44:       795.29 cm**-1
  45:       802.34 cm**-1
  46:       814.30 cm**-1
  47:       831.99 cm**-1
  48:       873.87 cm**-1
  49:       876.04 cm**-1
  50:       925.97 cm**-1
  51:       948.09 cm**-1
  52:       955.59 cm**-1
  53:       973.75 cm**-1
  54:       988.11 cm**-1
  55:       993.92 cm**-1
  56:       995.59 cm**-1
  57:      1008.84 cm**-1
  58:      1042.71 cm**-1
  59:      1060.06 cm**-1
  60:      1062.17 cm**-1
  61:      1088.06 cm**-1
  62:      1104.55 cm**-1
  63:      1114.62 cm**-1
  64:      1135.87 cm**-1
  65:      1173.16 cm**-1
  66:      1180.28 cm**-1
  67:      1188.83 cm**-1
  68:      1189.90 cm**-1
  69:      1197.37 cm**-1
  70:      1209.18 cm**-1
  71:      1248.85 cm**-1
  72:      1271.90 cm**-1
  73:      1273.81 cm**-1
  74:      1290.92 cm**-1
  75:      1293.33 cm**-1
  76:      1321.93 cm**-1
  77:      1376.97 cm**-1
  78:      1391.41 cm**-1
  79:      1403.61 cm**-1
  80:      1409.41 cm**-1
  81:      1417.90 cm**-1
  82:      1438.27 cm**-1
  83:      1443.11 cm**-1
  84:      1456.98 cm**-1
  85:      1475.48 cm**-1
  86:      1486.63 cm**-1
  87:      1487.81 cm**-1
  88:      1491.38 cm**-1
  89:      1499.35 cm**-1
  90:      1500.04 cm**-1
  91:      1503.94 cm**-1
  92:      1507.60 cm**-1
  93:      1509.51 cm**-1
  94:      1514.01 cm**-1
  95:      1528.90 cm**-1
  96:      1555.65 cm**-1
  97:      1567.96 cm**-1
  98:      1631.30 cm**-1
  99:      1652.43 cm**-1
 100:      1679.16 cm**-1
 101:      1707.09 cm**-1
 102:      1716.37 cm**-1
 103:      3046.06 cm**-1
 104:      3058.26 cm**-1
 105:      3063.96 cm**-1
 106:      3073.26 cm**-1
 107:      3106.78 cm**-1
 108:      3108.55 cm**-1
 109:      3112.56 cm**-1
 110:      3126.45 cm**-1
 111:      3155.94 cm**-1
 112:      3163.91 cm**-1
 113:      3170.49 cm**-1
 114:      3182.94 cm**-1
 115:      3185.42 cm**-1
 116:      3193.34 cm**-1
 117:      3199.82 cm**-1
 118:      3201.54 cm**-1
 119:      3208.28 cm**-1
 120:      3208.78 cm**-1
 121:      3217.53 cm**-1
 122:      3242.52 cm**-1

IR SPECTRUM
-----------

 Mode   freq       eps      Int      T**2         TX        TY        TZ
       cm**-1   L/(mol*cm) km/mol    a.u.
----------------------------------------------------------------------------
  6:     26.27   0.000264    1.33  0.003137  (-0.051540  0.021623  0.003560)
  7:     42.20   0.000747    3.78  0.005527  (-0.008356 -0.008705  0.073357)
  8:     51.15   0.000604    3.05  0.003683  ( 0.038341 -0.011146 -0.045708)
  9:     66.94   0.000415    2.10  0.001933  ( 0.002885  0.032294 -0.029695)
 10:     79.12   0.000356    1.80  0.001403  (-0.027486  0.016397 -0.019462)
 11:     99.76   0.001303    6.59  0.004076  ( 0.004096 -0.046783  0.043255)
 12:    109.07   0.000588    2.97  0.001684  (-0.012991  0.026823 -0.028204)
 13:    120.75   0.001902    9.61  0.004915  ( 0.046149 -0.040500 -0.033835)
 14:    133.76   0.000091    0.46  0.000212  (-0.007810  0.011644 -0.003895)
 15:    155.54   0.000155    0.78  0.000310  (-0.010464 -0.008034  0.011661)
 16:    166.01   0.000309    1.56  0.000582  ( 0.022371 -0.008591  0.002742)
 17:    186.52   0.000177    0.89  0.000296  ( 0.007063  0.008542 -0.013157)
 18:    194.94   0.000573    2.89  0.000917  (-0.026017  0.004035 -0.014954)
 19:    206.29   0.000357    1.81  0.000541  ( 0.018941 -0.010804 -0.008075)
 20:    252.44   0.000123    0.62  0.000151  (-0.004221 -0.011560  0.000008)
 21:    259.69   0.003862   19.52  0.004641  (-0.044901  0.040110 -0.031874)
 22:    279.21   0.001849    9.35  0.002067  (-0.007973 -0.039207  0.021592)
 23:    312.20   0.000238    1.20  0.000238  ( 0.002647  0.002766  0.014936)
 24:    346.15   0.005875   29.69  0.005296  ( 0.058772 -0.008712 -0.042024)
 25:    386.85   0.001906    9.63  0.001538  ( 0.020413  0.011787  0.031340)
 26:    412.45   0.000371    1.88  0.000281  ( 0.003500 -0.007728 -0.014460)
 27:    420.32   0.001318    6.66  0.000979  ( 0.030466 -0.003220  0.006349)
 28:    433.29   0.002302   11.64  0.001658  (-0.027389 -0.026531  0.014288)
 29:    457.29   0.000719    3.63  0.000491  (-0.021001 -0.002590  0.006542)
 30:    479.58   0.000263    1.33  0.000171  ( 0.000474 -0.009840  0.008616)
 31:    495.27   0.004527   22.88  0.002852  ( 0.048909 -0.020396  0.006655)
 32:    504.32   0.002850   14.41  0.001764  ( 0.011407 -0.031417  0.025430)
 33:    517.94   0.000673    3.40  0.000406  (-0.013353  0.012729 -0.008085)
 34:    556.52   0.000959    4.84  0.000538  ( 0.017982  0.000536 -0.014627)
 35:    568.03   0.004718   23.84  0.002592  ( 0.028276  0.038760  0.017024)
 36:    593.93   0.001190    6.01  0.000625  (-0.012183 -0.004851  0.021294)
 37:    619.81   0.000409    2.07  0.000206  (-0.013298  0.004171  0.003419)
 38:    623.68   0.004504   22.76  0.002254  (-0.035480  0.003774  0.031316)
 39:    662.76   0.001781    9.00  0.000839  (-0.015359 -0.009219  0.022753)
 40:    699.66   0.003594   18.16  0.001603  ( 0.029620 -0.001597  0.026894)
 41:    735.00   0.001326    6.70  0.000563  ( 0.010115 -0.021386  0.001796)
 42:    747.53   0.001349    6.82  0.000563  (-0.000525  0.011112 -0.020960)
 43:    757.58   0.002800   14.15  0.001153  (-0.012185 -0.005729  0.031178)
 44:    795.29   0.006155   31.11  0.002415  (-0.003452  0.035736 -0.033560)
 45:    802.34   0.000313    1.58  0.000122  ( 0.001870 -0.006140  0.008964)
 46:    814.30   0.019684   99.47  0.007543  ( 0.017653 -0.044787  0.072291)
 47:    831.99   0.003147   15.90  0.001180  (-0.009301  0.006662  0.032394)
 48:    873.87   0.000216    1.09  0.000077  ( 0.002790  0.007055 -0.004421)
 49:    876.04   0.001370    6.92  0.000488  (-0.014635  0.016530  0.000753)
 50:    925.97   0.001997   10.09  0.000673  (-0.020621 -0.012631 -0.009400)
 51:    948.09   0.000782    3.95  0.000257  ( 0.009689  0.012504 -0.002652)
 52:    955.59   0.000661    3.34  0.000216  ( 0.004677  0.005078  0.012967)
 53:    973.75   0.001688    8.53  0.000541  ( 0.019899 -0.010895  0.005118)
 54:    988.11   0.000104    0.53  0.000033  (-0.001896  0.001725 -0.005133)
 55:    993.92   0.004756   24.04  0.001493  ( 0.031053  0.021935  0.006921)
 56:    995.59   0.000311    1.57  0.000098  (-0.004142  0.006727 -0.005925)
 57:   1008.84   0.011722   59.24  0.003626  ( 0.043944 -0.000615 -0.041163)
 58:   1042.71   0.006999   35.37  0.002095  ( 0.023190  0.038671  0.007847)
 59:   1060.06   0.000438    2.22  0.000129  (-0.008341  0.000695 -0.007681)
 60:   1062.17   0.002099   10.61  0.000617  (-0.010776  0.008073  0.020869)
 61:   1088.06   0.001712    8.65  0.000491  (-0.019270 -0.010781 -0.001884)
 62:   1104.55   0.002552   12.90  0.000721  ( 0.002322  0.021956  0.015280)
 63:   1114.62   0.000452    2.29  0.000127  ( 0.002730  0.002574 -0.010608)
 64:   1135.87   0.000309    1.56  0.000085  ( 0.002015 -0.006637 -0.006062)
 65:   1173.16   0.000291    1.47  0.000077  ( 0.005441  0.000071 -0.006917)
 66:   1180.28   0.000349    1.76  0.000092  (-0.004166 -0.004167 -0.007579)
 67:   1188.83   0.011800   59.63  0.003097  (-0.003018 -0.016596 -0.053037)
 68:   1189.90   0.000256    1.29  0.000067  (-0.005431 -0.004409 -0.004271)
 69:   1197.37   0.000508    2.57  0.000132  (-0.004995  0.007938  0.006668)
 70:   1209.18   0.010000   50.54  0.002581  (-0.025691  0.038595  0.020765)
 71:   1248.85   0.000819    4.14  0.000205  (-0.007368 -0.009233 -0.008077)
 72:   1271.90   0.016089   81.31  0.003948  ( 0.062591  0.005412 -0.000839)
 73:   1273.81   0.026132  132.06  0.006402  ( 0.058770  0.053959  0.006035)
 74:   1290.92   0.016702   84.40  0.004037  ( 0.056409  0.014786 -0.025237)
 75:   1293.33   0.003434   17.35  0.000829  ( 0.026724 -0.009896 -0.004052)
 76:   1321.93   0.014606   73.81  0.003448  ( 0.056698 -0.000187  0.015270)
 77:   1376.97   0.006469   32.69  0.001466  (-0.030694  0.016415  0.015953)
 78:   1391.41   0.001714    8.66  0.000385  ( 0.003485  0.006577  0.018142)
 79:   1403.61   0.007240   36.59  0.001610  (-0.028898 -0.027576  0.003773)
 80:   1409.41   0.004858   24.55  0.001076  (-0.020021 -0.022957  0.012155)
 81:   1417.90   0.009617   48.60  0.002117  (-0.044738 -0.005323 -0.009313)
 82:   1438.27   0.000978    4.94  0.000212  (-0.013356  0.005127  0.002736)
 83:   1443.11   0.018772   94.87  0.004059  (-0.034091  0.010689  0.052753)
 84:   1456.98   0.022074  111.55  0.004728  ( 0.065677  0.005226 -0.019674)
 85:   1475.48   0.035342  178.60  0.007475  ( 0.071814  0.041301  0.024732)
 86:   1486.63   0.002276   11.50  0.000478  ( 0.010192 -0.019334  0.000268)
 87:   1487.81   0.001821    9.20  0.000382  ( 0.013311  0.007083 -0.012437)
 88:   1491.38   0.002150   10.86  0.000450  (-0.000067  0.020791 -0.004189)
 89:   1499.35   0.004919   24.86  0.001024  ( 0.027265  0.000139  0.016742)
 90:   1500.04   0.004103   20.73  0.000853  ( 0.021264  0.000923  0.020012)
 91:   1503.94   0.003495   17.66  0.000725  (-0.001153 -0.006350 -0.026146)
 92:   1507.60   0.005412   27.35  0.001120  ( 0.019928 -0.020512  0.017390)
 93:   1509.51   0.001235    6.24  0.000255  (-0.015418 -0.003730  0.001929)
 94:   1514.01   0.003673   18.56  0.000757  ( 0.002691 -0.021751  0.016638)
 95:   1528.90   0.001015    5.13  0.000207  (-0.012837  0.001916 -0.006223)
 96:   1555.65   0.016113   81.43  0.003232  ( 0.029595 -0.006141 -0.048153)
 97:   1567.96   0.002370   11.98  0.000472  ( 0.008722  0.016026  0.011779)
 98:   1631.30   0.000476    2.41  0.000091  (-0.006518  0.006744  0.001765)
 99:   1652.43   0.002984   15.08  0.000564  (-0.009179  0.019825  0.009292)
100:   1679.16   0.000121    0.61  0.000022  ( 0.000119  0.002287 -0.004148)
101:   1707.09   0.113294  572.54  0.020711  (-0.053206 -0.132813  0.015509)
102:   1716.37   0.106079  536.08  0.019287  ( 0.030571  0.075766  0.112302)
103:   3046.06   0.010095   51.02  0.001034  ( 0.020343  0.013353 -0.021025)
104:   3058.26   0.014469   73.12  0.001476  (-0.003143 -0.012841 -0.036078)
105:   3063.96   0.000794    4.01  0.000081  (-0.003703  0.004323 -0.006960)
106:   3073.26   0.007728   39.05  0.000785  ( 0.006487 -0.024582 -0.011761)
107:   3106.78   0.005177   26.16  0.000520  (-0.006910 -0.002726 -0.021559)
108:   3108.55   0.011153   56.36  0.001120  ( 0.010475 -0.029908  0.010743)
109:   3112.56   0.000878    4.44  0.000088  ( 0.003545  0.002941 -0.008175)
110:   3126.45   0.002063   10.43  0.000206  (-0.006734  0.003202  0.012262)
111:   3155.94   0.001835    9.27  0.000181  (-0.001587  0.011738  0.006413)
112:   3163.91   0.001714    8.66  0.000169  ( 0.005820  0.002105  0.011435)
113:   3170.49   0.003211   16.23  0.000316  (-0.012476 -0.012158  0.003541)
114:   3182.94   0.000260    1.31  0.000025  (-0.001158  0.003800  0.003115)
115:   3185.42   0.001274    6.44  0.000125  ( 0.010830  0.000142 -0.002738)
116:   3193.34   0.004698   23.74  0.000459  ( 0.009667 -0.012530 -0.014444)
117:   3199.82   0.000558    2.82  0.000054  (-0.006064 -0.002511 -0.003364)
118:   3201.54   0.007822   39.53  0.000762  (-0.003389  0.020672  0.017988)
119:   3208.28   0.010270   51.90  0.000999  (-0.030210 -0.008997 -0.002310)
120:   3208.78   0.003339   16.87  0.000325  (-0.017907  0.001775  0.000929)
121:   3217.53   0.002089   10.56  0.000203  ( 0.001742  0.012157  0.007196)
122:   3242.52   0.003990   20.16  0.000384  ( 0.007346 -0.011825 -0.013790)

--------------------------
THERMOCHEMISTRY AT 298.15K
--------------------------

Temperature         ... 298.15 K
Pressure            ... 1.00 atm
Total Mass          ... 284.36 AMU

Throughout the following assumptions are being made:
  (1) The electronic state is orbitally nondegenerate
  (2) There are no thermally accessible electronically excited states
  (3) Hindered rotations indicated by low frequency modes are not
      treated as such but are treated as vibrations and this may
      cause some error
  (4) All equations used are the standard statistical mechanics
      equations for an ideal gas
  (5) All vibrations are strictly harmonic

freq.      26.27  E(vib)   ...       0.56
freq.      42.20  E(vib)   ...       0.53
freq.      51.15  E(vib)   ...       0.52
freq.      66.94  E(vib)   ...       0.50
freq.      79.12  E(vib)   ...       0.49
freq.      99.76  E(vib)   ...       0.46
freq.     109.07  E(vib)   ...       0.45
freq.     120.75  E(vib)   ...       0.44
freq.     133.76  E(vib)   ...       0.42
freq.     155.54  E(vib)   ...       0.40
freq.     166.01  E(vib)   ...       0.39
freq.     186.52  E(vib)   ...       0.37
freq.     194.94  E(vib)   ...       0.36
freq.     206.29  E(vib)   ...       0.35
freq.     252.44  E(vib)   ...       0.30
freq.     259.69  E(vib)   ...       0.30
freq.     279.21  E(vib)   ...       0.28
freq.     312.20  E(vib)   ...       0.25
freq.     346.15  E(vib)   ...       0.23
freq.     386.85  E(vib)   ...       0.20
freq.     412.45  E(vib)   ...       0.19
freq.     420.32  E(vib)   ...       0.18
freq.     433.29  E(vib)   ...       0.17
freq.     457.29  E(vib)   ...       0.16
freq.     479.58  E(vib)   ...       0.15
freq.     495.27  E(vib)   ...       0.14
freq.     504.32  E(vib)   ...       0.14
freq.     517.94  E(vib)   ...       0.13
freq.     556.52  E(vib)   ...       0.12
freq.     568.03  E(vib)   ...       0.11
freq.     593.93  E(vib)   ...       0.10
freq.     619.81  E(vib)   ...       0.09
freq.     623.68  E(vib)   ...       0.09
freq.     662.76  E(vib)   ...       0.08
freq.     699.66  E(vib)   ...       0.07
freq.     735.00  E(vib)   ...       0.06
freq.     747.53  E(vib)   ...       0.06
freq.     757.58  E(vib)   ...       0.06
freq.     795.29  E(vib)   ...       0.05
freq.     802.34  E(vib)   ...       0.05
freq.     814.30  E(vib)   ...       0.05
freq.     831.99  E(vib)   ...       0.04
freq.     873.87  E(vib)   ...       0.04
freq.     876.04  E(vib)   ...       0.04
freq.     925.97  E(vib)   ...       0.03
freq.     948.09  E(vib)   ...       0.03
freq.     955.59  E(vib)   ...       0.03
freq.     973.75  E(vib)   ...       0.03
freq.     988.11  E(vib)   ...       0.02
freq.     993.92  E(vib)   ...       0.02
freq.     995.59  E(vib)   ...       0.02
freq.    1008.84  E(vib)   ...       0.02
freq.    1042.71  E(vib)   ...       0.02
freq.    1060.06  E(vib)   ...       0.02
freq.    1062.17  E(vib)   ...       0.02
freq.    1088.06  E(vib)   ...       0.02
freq.    1104.55  E(vib)   ...       0.02
freq.    1114.62  E(vib)   ...       0.01
freq.    1135.87  E(vib)   ...       0.01
freq.    1173.16  E(vib)   ...       0.01
freq.    1180.28  E(vib)   ...       0.01
freq.    1188.83  E(vib)   ...       0.01
freq.    1189.90  E(vib)   ...       0.01
freq.    1197.37  E(vib)   ...       0.01
freq.    1209.18  E(vib)   ...       0.01
freq.    1248.85  E(vib)   ...       0.01
freq.    1271.90  E(vib)   ...       0.01
freq.    1273.81  E(vib)   ...       0.01
freq.    1290.92  E(vib)   ...       0.01
freq.    1293.33  E(vib)   ...       0.01
freq.    1321.93  E(vib)   ...       0.01
freq.    1376.97  E(vib)   ...       0.01
freq.    1391.41  E(vib)   ...       0.00
freq.    1403.61  E(vib)   ...       0.00
freq.    1409.41  E(vib)   ...       0.00
freq.    1417.90  E(vib)   ...       0.00
freq.    1438.27  E(vib)   ...       0.00
freq.    1443.11  E(vib)   ...       0.00
freq.    1456.98  E(vib)   ...       0.00
freq.    1475.48  E(vib)   ...       0.00
freq.    1486.63  E(vib)   ...       0.00
freq.    1487.81  E(vib)   ...       0.00
freq.    1491.38  E(vib)   ...       0.00
freq.    1499.35  E(vib)   ...       0.00
freq.    1500.04  E(vib)   ...       0.00
freq.    1503.94  E(vib)   ...       0.00
freq.    1507.60  E(vib)   ...       0.00
freq.    1509.51  E(vib)   ...       0.00
freq.    1514.01  E(vib)   ...       0.00
freq.    1528.90  E(vib)   ...       0.00
freq.    1555.65  E(vib)   ...       0.00
freq.    1567.96  E(vib)   ...       0.00
freq.    1631.30  E(vib)   ...       0.00
freq.    1652.43  E(vib)   ...       0.00
freq.    1679.16  E(vib)   ...       0.00
freq.    1707.09  E(vib)   ...       0.00
freq.    1716.37  E(vib)   ...       0.00
freq.    3046.06  E(vib)   ...       0.00
freq.    3058.26  E(vib)   ...       0.00
freq.    3063.96  E(vib)   ...       0.00
freq.    3073.26  E(vib)   ...       0.00
freq.    3106.78  E(vib)   ...       0.00
freq.    3108.55  E(vib)   ...       0.00
freq.    3112.56  E(vib)   ...       0.00
freq.    3126.45  E(vib)   ...       0.00
freq.    3155.94  E(vib)   ...       0.00
freq.    3163.91  E(vib)   ...       0.00
freq.    3170.49  E(vib)   ...       0.00
freq.    3182.94  E(vib)   ...       0.00
freq.    3185.42  E(vib)   ...       0.00
freq.    3193.34  E(vib)   ...       0.00
freq.    3199.82  E(vib)   ...       0.00
freq.    3201.54  E(vib)   ...       0.00
freq.    3208.28  E(vib)   ...       0.00
freq.    3208.78  E(vib)   ...       0.00
freq.    3217.53  E(vib)   ...       0.00
freq.    3242.52  E(vib)   ...       0.00

------------
INNER ENERGY
------------

The inner energy is: U= E(el) + E(ZPE) + E(vib) + E(rot) + E(trans)
    E(el)   - is the total energy from the electronic structure calculation
              = E(kin-el) + E(nuc-el) + E(el-el) + E(nuc-nuc)
    E(ZPE)  - the the zero temperature vibrational energy from the frequency calculation
    E(vib)  - the the finite temperature correction to E(ZPE) due to population
              of excited vibrational states
    E(rot)  - is the rotational thermal energy
    E(trans)- is the translational thermal energy

Summary of contributions to the inner energy U:
Electronic energy                ...   -919.36348941 Eh
Zero point energy                ...      0.34484555 Eh     216.39 kcal/mol
Thermal vibrational correction   ...      0.01702656 Eh      10.68 kcal/mol
Thermal rotational correction    ...      0.00141627 Eh       0.89 kcal/mol
Thermal translational correction ...      0.00141627 Eh       0.89 kcal/mol
-----------------------------------------------------------------------
Total thermal energy                   -918.99878475 Eh

Summary of corrections to the electronic energy:
(perhaps to be used in another calculation)
Total thermal correction                  0.01985910 Eh      12.46 kcal/mol

Rotational constants in cm-1:     0.017075     0.008828     0.007654

                             ****ORCA TERMINATED NORMALLY****
TOTAL RUN TIME: 0 days 1 hours 37 minutes 56 seconds 178 msec
