                         Program Version 5.0.4 -  RELEASE  -
|  1> ! OPT FREQ B3LYP 6-31G(d) D4 AUTOAUX
|  2>
|  3> %PAL NPROCS 4 END
|  4>
|  5> %maxcore 3375
|  6>
|  7> *xyzfile 0 1 /users/fjb15167/WWenergy/structures/Nab.xyz
|  8>
|  9>                          ****END OF INPUT****
 Total Charge           Charge          ....    0
 Multiplicity           Mult            ....    1
 Number of Electrons    NEL             ....  110
Dispersion correction           -0.055306369
FINAL SINGLE POINT ENERGY      -652.725476488395
Dispersion correction            ... Starting D4
Dispersion correction           -0.054732360
FINAL SINGLE POINT ENERGY      -652.725973721913
Dispersion correction            ... Starting D4
Dispersion correction           -0.054747062
FINAL SINGLE POINT ENERGY      -652.726041270517
Dispersion correction            ... Starting D4
FINAL SINGLE POINT ENERGY      -652.726070748634
FINAL SINGLE POINT ENERGY      -652.726080547905
FINAL SINGLE POINT ENERGY      -652.726085293560
FINAL SINGLE POINT ENERGY      -652.726086834791
FINAL SINGLE POINT ENERGY      -652.726093076276
FINAL SINGLE POINT ENERGY      -652.726101701202
Dispersion correction           -0.054517471
FINAL SINGLE POINT ENERGY      -652.726108302645
Dispersion correction            ... Starting D4
Dispersion correction           -0.054520425
FINAL SINGLE POINT ENERGY      -652.726112713756
Dispersion correction            ... Starting D4
                    ***********************HURRAY********************

CARTESIAN COORDINATES (ANGSTROEM)
---------------------------------
  C     -0.455028    3.139502   -0.665745
  H      0.451305    2.827838   -1.194561
  H     -0.150491    3.796814    0.157704
  H     -1.094260    3.703968   -1.345667
  C     -1.266271    1.959367   -0.151319
  O     -2.464283    1.857616   -0.417525
  N     -0.610055    1.032505    0.620059
  C     -1.374879   -0.062260    1.214113
  H     -1.265132   -0.033165    2.302804
  H     -2.422398    0.095026    0.957747
  C      0.819391    1.095160    0.939333
  H      1.118475    2.142641    1.047391
  H      0.951520    0.624866    1.919790
  C      1.727551    0.393215   -0.080096
  H      1.470838   -0.670753   -0.119286
  H      1.541734    0.803368   -1.082678
  C     -0.840707   -1.437937    0.793945
  N     -1.148550   -1.901219   -0.455312
  O     -0.126415   -2.064812    1.576820
  C     -1.898601   -1.179932   -1.472276
  H     -1.241356   -0.912708   -2.312683
  H     -2.698802   -1.821820   -1.863527
  H     -2.344121   -0.263704   -1.087592
  C     -0.577432   -3.168531   -0.885961
  H      0.158450   -3.009805   -1.687428
  H     -0.088543   -3.637078   -0.032824
  H     -1.368258   -3.824578   -1.270678
  C      3.210395    0.543669    0.276636
  H      3.469903    1.611605    0.325345
  H      3.380756    0.139362    1.284350
  C      4.132864   -0.163516   -0.720341
  H      3.915228   -1.237786   -0.762575
  H      4.006594    0.241490   -1.732378
  H      5.186577   -0.046405   -0.442585

 Multiplicity           Mult            ....    1
 Number of Electrons    NEL             ....  110
 Basis Dimension        Dim             ....  236

ORBITAL ENERGIES
----------------

  NO   OCC          E(Eh)            E(eV)
   0   2.0000     -19.105658      -519.8914
   1   2.0000     -19.100310      -519.7459
   2   2.0000     -14.360574      -390.7711
   3   2.0000     -14.356768      -390.6675
   4   2.0000     -10.282008      -279.7877
   5   2.0000     -10.274263      -279.5769
   6   2.0000     -10.216658      -278.0094
   7   2.0000     -10.211009      -277.8557
   8   2.0000     -10.202844      -277.6335
   9   2.0000     -10.200030      -277.5569
  10   2.0000     -10.182440      -277.0783
  11   2.0000     -10.177803      -276.9521
  12   2.0000     -10.177025      -276.9309
  13   2.0000     -10.167219      -276.6641
  14   2.0000      -1.030993       -28.0547
  15   2.0000      -1.022569       -27.8255
  16   2.0000      -0.933296       -25.3963
  17   2.0000      -0.925869       -25.1942
  18   2.0000      -0.797418       -21.6988
  19   2.0000      -0.760319       -20.6893
  20   2.0000      -0.732460       -19.9313
  21   2.0000      -0.718429       -19.5495
  22   2.0000      -0.706090       -19.2137
  23   2.0000      -0.671882       -18.2828
  24   2.0000      -0.646043       -17.5797
  25   2.0000      -0.587138       -15.9768
  26   2.0000      -0.553349       -15.0574
  27   2.0000      -0.536273       -14.5927
  28   2.0000      -0.512030       -13.9331
  29   2.0000      -0.489680       -13.3249
  30   2.0000      -0.480775       -13.0825
  31   2.0000      -0.467782       -12.7290
  32   2.0000      -0.459121       -12.4933
  33   2.0000      -0.455329       -12.3901
  34   2.0000      -0.450734       -12.2651
  35   2.0000      -0.428198       -11.6519
  36   2.0000      -0.414305       -11.2738
  37   2.0000      -0.409305       -11.1377
  38   2.0000      -0.404899       -11.0179
  39   2.0000      -0.398749       -10.8505
  40   2.0000      -0.396508       -10.7895
  41   2.0000      -0.395586       -10.7644
  42   2.0000      -0.390942       -10.6381
  43   2.0000      -0.381797       -10.3892
  44   2.0000      -0.373189       -10.1550
  45   2.0000      -0.364775        -9.9260
  46   2.0000      -0.355617        -9.6768
  47   2.0000      -0.352620        -9.5953
  48   2.0000      -0.340728        -9.2717
  49   2.0000      -0.334635        -9.1059
  50   2.0000      -0.327386        -8.9086
  51   2.0000      -0.253593        -6.9006
  52   2.0000      -0.247740        -6.7413
  53   2.0000      -0.234380        -6.3778
  54   2.0000      -0.230498        -6.2722
  55   0.0000       0.018692         0.5086
  56   0.0000       0.031521         0.8577
  57   0.0000       0.075465         2.0535
  58   0.0000       0.091941         2.5018
  59   0.0000       0.102395         2.7863

MULLIKEN ATOMIC CHARGES
-----------------------
   0 C :   -0.552398
   1 H :    0.169652
   2 H :    0.174845
   3 H :    0.187419
   4 C :    0.525854
   5 O :   -0.479563
   6 N :   -0.376683
   7 C :   -0.249384
   8 H :    0.172740
   9 H :    0.200323
  10 C :   -0.156693
  11 H :    0.148553
  12 H :    0.170902
  13 C :   -0.263891
  14 H :    0.166190
  15 H :    0.128974
  16 C :    0.526052
  17 N :   -0.366732
  18 O :   -0.488997
  19 C :   -0.348580
  20 H :    0.149064
  21 H :    0.153078
  22 H :    0.216923
  23 C :   -0.321888
  24 H :    0.148305
  25 H :    0.201688
  26 H :    0.151930
  27 C :   -0.251137
  28 H :    0.128036
  29 H :    0.143027
  30 C :   -0.441074
  31 H :    0.148103
  32 H :    0.140062
  33 H :    0.145301
Sum of atomic charges:   -0.0000000

LOEWDIN ATOMIC CHARGES
----------------------
   0 C :   -0.389829
   1 H :    0.140461
   2 H :    0.145680
   3 H :    0.152696
   4 C :    0.108983
   5 O :   -0.290645
   6 N :   -0.076125
   7 C :   -0.178501
   8 H :    0.140795
   9 H :    0.157301
  10 C :   -0.158048
  11 H :    0.126942
  12 H :    0.138924
  13 C :   -0.244080
  14 H :    0.134949
  15 H :    0.114812
  16 C :    0.092779
  17 N :   -0.081088
  18 O :   -0.291103
  19 C :   -0.287332
  20 H :    0.121401
  21 H :    0.125080
  22 H :    0.157359
  23 C :   -0.279074
  24 H :    0.120842
  25 H :    0.155616
  26 H :    0.125166
  27 C :   -0.232319
  28 H :    0.115068
  29 H :    0.123158
  30 C :   -0.362064
  31 H :    0.125112
  32 H :    0.121133
  33 H :    0.125950

  Mayer bond orders larger than 0.100000
B(  0-C ,  1-H ) :   0.9268 B(  0-C ,  2-H ) :   0.9290 B(  0-C ,  3-H ) :   0.9404
B(  0-C ,  4-C ) :   0.9795 B(  4-C ,  5-O ) :   1.7844 B(  4-C ,  6-N ) :   1.1391
B(  6-N ,  7-C ) :   0.9569 B(  6-N , 10-C ) :   0.9347 B(  7-C ,  8-H ) :   0.9201
B(  7-C ,  9-H ) :   0.8947 B(  7-C , 16-C ) :   0.9292 B( 10-C , 11-H ) :   0.9275
B( 10-C , 12-H ) :   0.9228 B( 10-C , 13-C ) :   0.9929 B( 13-C , 14-H ) :   0.9225
B( 13-C , 15-H ) :   0.9341 B( 13-C , 27-C ) :   1.0062 B( 16-C , 17-N ) :   1.1575
B( 16-C , 18-O ) :   1.7816 B( 17-N , 18-O ) :   0.1013 B( 17-N , 19-C ) :   0.9570
B( 17-N , 23-C ) :   0.9582 B( 19-C , 20-H ) :   0.9364 B( 19-C , 21-H ) :   0.9372
B( 19-C , 22-H ) :   0.8895 B( 23-C , 24-H ) :   0.9390 B( 23-C , 25-H ) :   0.9188
B( 23-C , 26-H ) :   0.9410 B( 27-C , 28-H ) :   0.9429 B( 27-C , 29-H ) :   0.9406
B( 27-C , 30-C ) :   1.0202 B( 30-C , 31-H ) :   0.9516 B( 30-C , 32-H ) :   0.9529
B( 30-C , 33-H ) :   0.9522

Dispersion correction           -0.054531077
FINAL SINGLE POINT ENERGY      -652.726115020158

DIPOLE MOMENT
-------------
                                X             Y             Z
Electronic contribution:    -12.42971      -0.31243       6.28578
Nuclear contribution   :     13.18240       0.63061      -6.94588
                        -----------------------------------------
Total Dipole Moment    :      0.75270       0.31819      -0.66010
                        -----------------------------------------
Magnitude (a.u.)       :      1.05049
Magnitude (Debye)      :      2.67013

Dispersion correction in the Hessian             ... Starting D4

VIBRATIONAL FREQUENCIES
-----------------------

Scaling factor for frequencies =  1.000000000  (already applied!)

   0:         0.00 cm**-1
   1:         0.00 cm**-1
   2:         0.00 cm**-1
   3:         0.00 cm**-1
   4:         0.00 cm**-1
   5:         0.00 cm**-1
   6:        24.95 cm**-1
   7:        47.46 cm**-1
   8:        49.96 cm**-1
   9:        71.52 cm**-1
  10:        79.06 cm**-1
  11:        96.84 cm**-1
  12:       114.06 cm**-1
  13:       134.20 cm**-1
  14:       150.62 cm**-1
  15:       161.07 cm**-1
  16:       164.24 cm**-1
  17:       193.99 cm**-1
  18:       236.20 cm**-1
  19:       246.71 cm**-1
  20:       261.78 cm**-1
  21:       281.94 cm**-1
  22:       345.98 cm**-1
  23:       360.75 cm**-1
  24:       387.72 cm**-1
  25:       428.06 cm**-1
  26:       444.07 cm**-1
  27:       467.13 cm**-1
  28:       488.90 cm**-1
  29:       582.26 cm**-1
  30:       595.99 cm**-1
  31:       633.68 cm**-1
  32:       703.64 cm**-1
  33:       740.35 cm**-1
  34:       766.46 cm**-1
  35:       799.51 cm**-1
  36:       829.64 cm**-1
  37:       920.43 cm**-1
  38:       953.03 cm**-1
  39:       959.66 cm**-1
  40:      1006.10 cm**-1
  41:      1008.31 cm**-1
  42:      1029.67 cm**-1
  43:      1063.57 cm**-1
  44:      1070.33 cm**-1
  45:      1079.74 cm**-1
  46:      1096.07 cm**-1
  47:      1140.95 cm**-1
  48:      1141.47 cm**-1
  49:      1155.33 cm**-1
  50:      1189.82 cm**-1
  51:      1205.38 cm**-1
  52:      1238.04 cm**-1
  53:      1270.89 cm**-1
  54:      1291.02 cm**-1
  55:      1301.61 cm**-1
  56:      1311.66 cm**-1
  57:      1343.28 cm**-1
  58:      1354.00 cm**-1
  59:      1374.89 cm**-1
  60:      1404.46 cm**-1
  61:      1416.07 cm**-1
  62:      1429.84 cm**-1
  63:      1441.76 cm**-1
  64:      1447.30 cm**-1
  65:      1460.46 cm**-1
  66:      1474.37 cm**-1
  67:      1496.62 cm**-1
  68:      1500.51 cm**-1
  69:      1512.32 cm**-1
  70:      1518.16 cm**-1
  71:      1519.49 cm**-1
  72:      1522.48 cm**-1
  73:      1525.30 cm**-1
  74:      1529.15 cm**-1
  75:      1533.08 cm**-1
  76:      1538.09 cm**-1
  77:      1539.96 cm**-1
  78:      1543.78 cm**-1
  79:      1569.88 cm**-1
  80:      1745.33 cm**-1
  81:      1749.60 cm**-1
  82:      3019.09 cm**-1
  83:      3022.23 cm**-1
  84:      3027.69 cm**-1
  85:      3036.48 cm**-1
  86:      3041.34 cm**-1
  87:      3056.22 cm**-1
  88:      3059.46 cm**-1
  89:      3068.84 cm**-1
  90:      3070.17 cm**-1
  91:      3079.76 cm**-1
  92:      3083.05 cm**-1
  93:      3099.05 cm**-1
  94:      3106.25 cm**-1
  95:      3112.85 cm**-1
  96:      3121.04 cm**-1
  97:      3123.61 cm**-1
  98:      3165.45 cm**-1
  99:      3175.99 cm**-1
 100:      3187.93 cm**-1
 101:      3190.14 cm**-1

IR SPECTRUM
-----------

 Mode   freq       eps      Int      T**2         TX        TY        TZ
       cm**-1   L/(mol*cm) km/mol    a.u.
----------------------------------------------------------------------------
  6:     24.95   0.000562    2.84  0.007024  (-0.071071 -0.017009  0.041028)
  7:     47.46   0.000067    0.34  0.000441  (-0.013426  0.010818 -0.011994)
  8:     49.96   0.000298    1.50  0.001858  ( 0.022822  0.029544 -0.021555)
  9:     71.52   0.000330    1.67  0.001438  (-0.021321 -0.021991  0.022356)
 10:     79.06   0.000092    0.46  0.000362  (-0.012395 -0.005519  0.013355)
 11:     96.84   0.000352    1.78  0.001136  (-0.021386 -0.017408  0.019379)
 12:    114.06   0.001326    6.70  0.003628  (-0.000651 -0.055358 -0.023723)
 13:    134.20   0.001097    5.54  0.002550  ( 0.009975  0.045862  0.018634)
 14:    150.62   0.000256    1.29  0.000531  ( 0.004986 -0.022394 -0.002049)
 15:    161.07   0.000154    0.78  0.000299  (-0.008685 -0.000963  0.014927)
 16:    164.24   0.000015    0.08  0.000028  (-0.000157  0.004306 -0.003117)
 17:    193.99   0.000242    1.22  0.000390  ( 0.015992  0.006306 -0.009709)
 18:    236.20   0.000228    1.15  0.000301  ( 0.006574  0.014920 -0.005969)
 19:    246.71   0.000022    0.11  0.000028  ( 0.003046  0.002563 -0.003481)
 20:    261.78   0.000185    0.94  0.000221  ( 0.010868 -0.001842 -0.009979)
 21:    281.94   0.001380    6.98  0.001528  (-0.026597 -0.028642  0.000472)
 22:    345.98   0.001074    5.43  0.000969  ( 0.000231  0.022764  0.021224)
 23:    360.75   0.000706    3.57  0.000611  ( 0.010502 -0.013058  0.018167)
 24:    387.72   0.001162    5.87  0.000935  ( 0.003944 -0.016964 -0.025136)
 25:    428.06   0.000150    0.76  0.000109  ( 0.001497  0.009970  0.002789)
 26:    444.07   0.001069    5.40  0.000751  (-0.013429  0.022325  0.008524)
 27:    467.13   0.001464    7.40  0.000978  (-0.031170  0.002462  0.000837)
 28:    488.90   0.002935   14.83  0.001873  (-0.022709 -0.030474  0.020714)
 29:    582.26   0.001807    9.13  0.000969  (-0.008174  0.027689  0.011623)
 30:    595.99   0.001589    8.03  0.000832  (-0.016635  0.021758  0.009060)
 31:    633.68   0.002618   13.23  0.001289  ( 0.009115 -0.000495  0.034726)
 32:    703.64   0.000345    1.74  0.000153  ( 0.011547 -0.000061  0.004418)
 33:    740.35   0.001294    6.54  0.000545  (-0.005680 -0.021730  0.006387)
 34:    766.46   0.000872    4.41  0.000355  (-0.002556 -0.015918 -0.009764)
 35:    799.51   0.001291    6.52  0.000504  (-0.011626 -0.016586 -0.009678)
 36:    829.64   0.001949    9.85  0.000733  (-0.013931 -0.011678 -0.020062)
 37:    920.43   0.000404    2.04  0.000137  ( 0.010975 -0.002612 -0.003100)
 38:    953.03   0.000920    4.65  0.000301  (-0.003831 -0.012667  0.011229)
 39:    959.66   0.000589    2.97  0.000191  ( 0.004391  0.013089 -0.000912)
 40:   1006.10   0.003153   15.94  0.000978  (-0.014309 -0.004747 -0.027401)
 41:   1008.31   0.003346   16.91  0.001036  (-0.016020  0.026695  0.008142)
 42:   1029.67   0.003588   18.13  0.001087  ( 0.014678 -0.022918 -0.018620)
 43:   1063.57   0.000682    3.44  0.000200  ( 0.002480 -0.008651 -0.010908)
 44:   1070.33   0.000267    1.35  0.000078  (-0.006020  0.006454  0.000070)
 45:   1079.74   0.003644   18.41  0.001053  ( 0.010237 -0.011963  0.028374)
 46:   1096.07   0.000681    3.44  0.000194  (-0.009748  0.009929  0.000381)
 47:   1140.95   0.000993    5.02  0.000272  (-0.010490 -0.006886 -0.010684)
 48:   1141.47   0.000670    3.38  0.000183  ( 0.007849 -0.002731  0.010677)
 49:   1155.33   0.007490   37.85  0.002023  ( 0.022467  0.027056  0.028042)
 50:   1189.82   0.000617    3.12  0.000162  (-0.009659 -0.006059 -0.005630)
 51:   1205.38   0.005464   27.62  0.001415  (-0.010969  0.005035 -0.035624)
 52:   1238.04   0.002441   12.34  0.000615  ( 0.019260 -0.007646 -0.013637)
 53:   1270.89   0.009638   48.71  0.002367  ( 0.017633 -0.039655  0.021982)
 54:   1291.02   0.007912   39.99  0.001913  ( 0.016205 -0.035819 -0.019156)
 55:   1301.61   0.015348   77.56  0.003680  ( 0.001813  0.055651 -0.024072)
 56:   1311.66   0.000984    4.97  0.000234  (-0.008468  0.012739  0.000226)
 57:   1343.28   0.001557    7.87  0.000362  ( 0.012540 -0.013321  0.005204)
 58:   1354.00   0.001468    7.42  0.000338  (-0.005808  0.017314 -0.002191)
 59:   1374.89   0.000074    0.38  0.000017  ( 0.003823 -0.001375  0.000624)
 60:   1404.46   0.000781    3.95  0.000174  (-0.012899  0.000339 -0.002659)
 61:   1416.07   0.001966    9.93  0.000433  ( 0.015484  0.007226 -0.011884)
 62:   1429.84   0.005102   25.78  0.001114  ( 0.028849 -0.014686  0.008099)
 63:   1441.76   0.001171    5.92  0.000254  ( 0.008282  0.000059  0.013600)
 64:   1447.30   0.006193   31.29  0.001335  (-0.010219 -0.019002 -0.029491)
 65:   1460.46   0.018959   95.81  0.004051  (-0.001751 -0.057554 -0.027121)
 66:   1474.37   0.022582  114.12  0.004780  (-0.033999  0.048182 -0.036087)
 67:   1496.62   0.003020   15.26  0.000630  ( 0.024815 -0.002242  0.002980)
 68:   1500.51   0.001167    5.90  0.000243  (-0.006992  0.003976  0.013342)
 69:   1512.32   0.000957    4.84  0.000198  (-0.003277  0.005587 -0.012474)
 70:   1518.16   0.002194   11.09  0.000451  ( 0.004226  0.019382 -0.007586)
 71:   1519.49   0.001426    7.21  0.000293  (-0.002429 -0.006841  0.015497)
 72:   1522.48   0.001829    9.24  0.000375  (-0.009760  0.016722 -0.000132)
 73:   1525.30   0.000132    0.67  0.000027  (-0.002573  0.002527 -0.003753)
 74:   1529.15   0.001550    7.83  0.000316  ( 0.001098 -0.014482  0.010265)
 75:   1533.08   0.002816   14.23  0.000573  ( 0.009732  0.015602 -0.015332)
 76:   1538.09   0.001832    9.26  0.000372  (-0.016949 -0.008837  0.002498)
 77:   1539.96   0.003616   18.27  0.000733  ( 0.024681  0.007873  0.007846)
 78:   1543.78   0.001567    7.92  0.000317  ( 0.004499 -0.002072 -0.017093)
 79:   1569.88   0.008380   42.35  0.001666  (-0.004252  0.026199  0.031006)
 80:   1745.33   0.040281  203.56  0.007202  ( 0.083152 -0.010430  0.013387)
 81:   1749.60   0.076854  388.39  0.013708  (-0.070989  0.021107 -0.090680)
 82:   3019.09   0.004948   25.01  0.000511  ( 0.011069 -0.007382  0.018287)
 83:   3022.23   0.004639   23.44  0.000479  (-0.006759 -0.016510 -0.012678)
 84:   3027.69   0.015251   77.07  0.001572  ( 0.006402 -0.017502 -0.034994)
 85:   3036.48   0.002496   12.62  0.000257  ( 0.012792 -0.001285  0.009553)
 86:   3041.34   0.006281   31.74  0.000644  (-0.011901  0.010861  0.019617)
 87:   3056.22   0.002937   14.84  0.000300  (-0.000131  0.009073 -0.014751)
 88:   3059.46   0.000932    4.71  0.000095  (-0.005265 -0.005808  0.005799)
 89:   3068.84   0.012703   64.20  0.001292  (-0.029018 -0.020271 -0.006230)
 90:   3070.17   0.004264   21.55  0.000433  (-0.007808 -0.008137 -0.017499)
 91:   3079.76   0.006962   35.18  0.000705  (-0.019848 -0.017647  0.000130)
 92:   3083.05   0.004798   24.25  0.000486  ( 0.004184  0.004438 -0.021177)
 93:   3099.05   0.000965    4.88  0.000097  (-0.000403  0.004071 -0.008969)
 94:   3106.25   0.005538   27.98  0.000556  ( 0.005371 -0.016879  0.015575)
 95:   3112.85   0.007547   38.14  0.000757  (-0.024171 -0.007965 -0.010437)
 96:   3121.04   0.010767   54.41  0.001077  ( 0.003065  0.032067 -0.006236)
 97:   3123.61   0.002768   13.99  0.000277  ( 0.007450  0.004062 -0.014301)
 98:   3165.45   0.000457    2.31  0.000045  (-0.001922 -0.006065 -0.002132)
 99:   3175.99   0.001495    7.56  0.000147  (-0.009433  0.005721 -0.005024)
100:   3187.93   0.002194   11.09  0.000215  ( 0.002446  0.014388  0.001336)
101:   3190.14   0.000182    0.92  0.000018  ( 0.003544  0.001912  0.001274)

--------------------------
THERMOCHEMISTRY AT 298.15K
--------------------------

Temperature         ... 298.15 K
Pressure            ... 1.00 atm
Total Mass          ... 200.28 AMU

Throughout the following assumptions are being made:
  (1) The electronic state is orbitally nondegenerate
  (2) There are no thermally accessible electronically excited states
  (3) Hindered rotations indicated by low frequency modes are not
      treated as such but are treated as vibrations and this may
      cause some error
  (4) All equations used are the standard statistical mechanics
      equations for an ideal gas
  (5) All vibrations are strictly harmonic

freq.      24.95  E(vib)   ...       0.56
freq.      47.46  E(vib)   ...       0.53
freq.      49.96  E(vib)   ...       0.52
freq.      71.52  E(vib)   ...       0.50
freq.      79.06  E(vib)   ...       0.49
freq.      96.84  E(vib)   ...       0.46
freq.     114.06  E(vib)   ...       0.44
freq.     134.20  E(vib)   ...       0.42
freq.     150.62  E(vib)   ...       0.40
freq.     161.07  E(vib)   ...       0.39
freq.     164.24  E(vib)   ...       0.39
freq.     193.99  E(vib)   ...       0.36
freq.     236.20  E(vib)   ...       0.32
freq.     246.71  E(vib)   ...       0.31
freq.     261.78  E(vib)   ...       0.30
freq.     281.94  E(vib)   ...       0.28
freq.     345.98  E(vib)   ...       0.23
freq.     360.75  E(vib)   ...       0.22
freq.     387.72  E(vib)   ...       0.20
freq.     428.06  E(vib)   ...       0.18
freq.     444.07  E(vib)   ...       0.17
freq.     467.13  E(vib)   ...       0.16
freq.     488.90  E(vib)   ...       0.15
freq.     582.26  E(vib)   ...       0.11
freq.     595.99  E(vib)   ...       0.10
freq.     633.68  E(vib)   ...       0.09
freq.     703.64  E(vib)   ...       0.07
freq.     740.35  E(vib)   ...       0.06
freq.     766.46  E(vib)   ...       0.06
freq.     799.51  E(vib)   ...       0.05
freq.     829.64  E(vib)   ...       0.04
freq.     920.43  E(vib)   ...       0.03
freq.     953.03  E(vib)   ...       0.03
freq.     959.66  E(vib)   ...       0.03
freq.    1006.10  E(vib)   ...       0.02
freq.    1008.31  E(vib)   ...       0.02
freq.    1029.67  E(vib)   ...       0.02
freq.    1063.57  E(vib)   ...       0.02
freq.    1070.33  E(vib)   ...       0.02
freq.    1079.74  E(vib)   ...       0.02
freq.    1096.07  E(vib)   ...       0.02
freq.    1140.95  E(vib)   ...       0.01
freq.    1141.47  E(vib)   ...       0.01
freq.    1155.33  E(vib)   ...       0.01
freq.    1189.82  E(vib)   ...       0.01
freq.    1205.38  E(vib)   ...       0.01
freq.    1238.04  E(vib)   ...       0.01
freq.    1270.89  E(vib)   ...       0.01
freq.    1291.02  E(vib)   ...       0.01
freq.    1301.61  E(vib)   ...       0.01
freq.    1311.66  E(vib)   ...       0.01
freq.    1343.28  E(vib)   ...       0.01
freq.    1354.00  E(vib)   ...       0.01
freq.    1374.89  E(vib)   ...       0.01
freq.    1404.46  E(vib)   ...       0.00
freq.    1416.07  E(vib)   ...       0.00
freq.    1429.84  E(vib)   ...       0.00
freq.    1441.76  E(vib)   ...       0.00
freq.    1447.30  E(vib)   ...       0.00
freq.    1460.46  E(vib)   ...       0.00
freq.    1474.37  E(vib)   ...       0.00
freq.    1496.62  E(vib)   ...       0.00
freq.    1500.51  E(vib)   ...       0.00
freq.    1512.32  E(vib)   ...       0.00
freq.    1518.16  E(vib)   ...       0.00
freq.    1519.49  E(vib)   ...       0.00
freq.    1522.48  E(vib)   ...       0.00
freq.    1525.30  E(vib)   ...       0.00
freq.    1529.15  E(vib)   ...       0.00
freq.    1533.08  E(vib)   ...       0.00
freq.    1538.09  E(vib)   ...       0.00
freq.    1539.96  E(vib)   ...       0.00
freq.    1543.78  E(vib)   ...       0.00
freq.    1569.88  E(vib)   ...       0.00
freq.    1745.33  E(vib)   ...       0.00
freq.    1749.60  E(vib)   ...       0.00
freq.    3019.09  E(vib)   ...       0.00
freq.    3022.23  E(vib)   ...       0.00
freq.    3027.69  E(vib)   ...       0.00
freq.    3036.48  E(vib)   ...       0.00
freq.    3041.34  E(vib)   ...       0.00
freq.    3056.22  E(vib)   ...       0.00
freq.    3059.46  E(vib)   ...       0.00
freq.    3068.84  E(vib)   ...       0.00
freq.    3070.17  E(vib)   ...       0.00
freq.    3079.76  E(vib)   ...       0.00
freq.    3083.05  E(vib)   ...       0.00
freq.    3099.05  E(vib)   ...       0.00
freq.    3106.25  E(vib)   ...       0.00
freq.    3112.85  E(vib)   ...       0.00
freq.    3121.04  E(vib)   ...       0.00
freq.    3123.61  E(vib)   ...       0.00
freq.    3165.45  E(vib)   ...       0.00
freq.    3175.99  E(vib)   ...       0.00
freq.    3187.93  E(vib)   ...       0.00
freq.    3190.14  E(vib)   ...       0.00

------------
INNER ENERGY
------------

The inner energy is: U= E(el) + E(ZPE) + E(vib) + E(rot) + E(trans)
    E(el)   - is the total energy from the electronic structure calculation
              = E(kin-el) + E(nuc-el) + E(el-el) + E(nuc-nuc)
    E(ZPE)  - the the zero temperature vibrational energy from the frequency calculation
    E(vib)  - the the finite temperature correction to E(ZPE) due to population
              of excited vibrational states
    E(rot)  - is the rotational thermal energy
    E(trans)- is the translational thermal energy

Summary of contributions to the inner energy U:
Electronic energy                ...   -652.72611502 Eh
Zero point energy                ...      0.30221856 Eh     189.64 kcal/mol
Thermal vibrational correction   ...      0.01424742 Eh       8.94 kcal/mol
Thermal rotational correction    ...      0.00141627 Eh       0.89 kcal/mol
Thermal translational correction ...      0.00141627 Eh       0.89 kcal/mol
-----------------------------------------------------------------------
Total thermal energy                   -652.40681649 Eh

Summary of corrections to the electronic energy:
(perhaps to be used in another calculation)
Total thermal correction                  0.01707996 Eh      10.72 kcal/mol
Non-thermal (ZPE) correction              0.30221856 Eh     189.64 kcal/mol
-----------------------------------------------------------------------
Total correction                          0.31929853 Eh     200.36 kcal/mol

--------
ENTHALPY
--------

The enthalpy is H = U + kB*T
                kB is Boltzmann's constant
Total free energy                 ...   -652.40681649 Eh
Thermal Enthalpy correction       ...      0.00094421 Eh       0.59 kcal/mol
-----------------------------------------------------------------------
Total Enthalpy                    ...   -652.40587228 Eh

Note: Only C1 symmetry has been detected, increase convergence thresholds
      if your molecule has a higher symmetry. Symmetry factor of 1.0 is
      used for the rotational entropy correction.

Rotational constants in cm-1:     0.021299     0.019129     0.012649

                             ****ORCA TERMINATED NORMALLY****
TOTAL RUN TIME: 0 days 0 hours 24 minutes 4 seconds 697 msec
