                         Program Version 5.0.4 -  RELEASE  -
|  1> ! OPT FREQ B3LYP 6-31G(d) D4 AUTOAUX
|  2>
|  3> %PAL NPROCS 4 END
|  4>
|  5> %maxcore 3375
|  6>
|  7> *xyzfile 0 1 /users/fjb15167/WWenergy/structures/Na.xyz
|  8>
|  9>                          ****END OF INPUT****
 Total Charge           Charge          ....    0
 Multiplicity           Mult            ....    1
 Number of Electrons    NEL             ....   86
Dispersion correction           -0.039958276
FINAL SINGLE POINT ENERGY      -534.850214770362
Dispersion correction            ... Starting D4
Dispersion correction           -0.039643677
FINAL SINGLE POINT ENERGY      -534.850630739105
Dispersion correction            ... Starting D4
Dispersion correction           -0.039837547
FINAL SINGLE POINT ENERGY      -534.850724687419
Dispersion correction            ... Starting D4
FINAL SINGLE POINT ENERGY      -534.850768155905
FINAL SINGLE POINT ENERGY      -534.850812415865
FINAL SINGLE POINT ENERGY      -534.850836292635
FINAL SINGLE POINT ENERGY      -534.850858804275
FINAL SINGLE POINT ENERGY      -534.850872896102
FINAL SINGLE POINT ENERGY      -534.850886816467
Dispersion correction           -0.039918359
FINAL SINGLE POINT ENERGY      -534.850898170560
Dispersion correction            ... Starting D4
Dispersion correction           -0.039915951
FINAL SINGLE POINT ENERGY      -534.850903104741
Dispersion correction            ... Starting D4
                    ***********************HURRAY********************

CARTESIAN COORDINATES (ANGSTROEM)
---------------------------------
  C     -1.715707    0.595742   -0.470506
  H     -0.592427    2.276884    0.403015
  H     -1.542520    2.617538   -1.073504
  H     -0.011558    1.727180   -1.166800
  O     -2.711058    0.419130   -1.163722
  C     -0.914415    1.884385   -0.565290
  N      1.706046   -0.431408   -0.262768
  C      1.129306   -1.637073   -0.836639
  H      0.514488   -1.423641   -1.721043
  H      1.944595   -2.306621   -1.133847
  H      0.514838   -2.167529   -0.109934
  C      2.929819    0.052779   -0.887575
  H      3.738939   -0.680392   -0.772716
  H      2.766917    0.224608   -1.959693
  H      3.216403    0.985155   -0.402822
  N     -1.261415   -0.379021    0.402397
  C     -0.178564   -0.165805    1.356843
  H     -0.430228    0.592710    2.106678
  H     -0.035603   -1.108709    1.897171
  C     -2.102557   -1.551402    0.611680
  H     -2.848158   -1.576862   -0.181806
  H     -2.613194   -1.506424    1.583642
  H     -1.500622   -2.468136    0.579841
  C      1.180868    0.274995    0.785213
  O      1.749807    1.238916    1.289185

 Multiplicity           Mult            ....    1
 Number of Electrons    NEL             ....   86
 Basis Dimension        Dim             ....  182

ORBITAL ENERGIES
----------------

  NO   OCC          E(Eh)            E(eV)
   0   2.0000     -19.108774      -519.9762
   1   2.0000     -19.100599      -519.7537
   2   2.0000     -14.366097      -390.9214
   3   2.0000     -14.359026      -390.7290
   4   2.0000     -10.284749      -279.8622
   5   2.0000     -10.277580      -279.6672
   6   2.0000     -10.228641      -278.3355
   7   2.0000     -10.221205      -278.1331
   8   2.0000     -10.208272      -277.7812
   9   2.0000     -10.206123      -277.7227
  10   2.0000     -10.172121      -276.7975
  11   2.0000      -1.034957       -28.1626
  12   2.0000      -1.024500       -27.8781
  13   2.0000      -0.939714       -25.5709
  14   2.0000      -0.928005       -25.2523
  15   2.0000      -0.754062       -20.5191
  16   2.0000      -0.742386       -20.2014
  17   2.0000      -0.726610       -19.7721
  18   2.0000      -0.690848       -18.7989
  19   2.0000      -0.675271       -18.3750
  20   2.0000      -0.566008       -15.4019
  21   2.0000      -0.546922       -14.8825
  22   2.0000      -0.498882       -13.5753
  23   2.0000      -0.493773       -13.4362
  24   2.0000      -0.489057       -13.3079
  25   2.0000      -0.469469       -12.7749
  26   2.0000      -0.459699       -12.5090
  27   2.0000      -0.453259       -12.3338
  28   2.0000      -0.423992       -11.5374
  29   2.0000      -0.414569       -11.2810
  30   2.0000      -0.413430       -11.2500
  31   2.0000      -0.407446       -11.0872
  32   2.0000      -0.401276       -10.9193
  33   2.0000      -0.397885       -10.8270
  34   2.0000      -0.389165       -10.5897
  35   2.0000      -0.383754       -10.4425
  36   2.0000      -0.379718       -10.3326
  37   2.0000      -0.357930        -9.7398
  38   2.0000      -0.346613        -9.4318
  39   2.0000      -0.257064        -6.9951
  40   2.0000      -0.244512        -6.6535
  41   2.0000      -0.242231        -6.5914
  42   2.0000      -0.234187        -6.3726
  43   0.0000       0.015452         0.4205
  44   0.0000       0.028712         0.7813
  45   0.0000       0.068182         1.8553
  46   0.0000       0.090665         2.4671
  47   0.0000       0.120785         3.2867

MULLIKEN ATOMIC CHARGES
-----------------------
   0 C :    0.519803
   1 H :    0.185374
   2 H :    0.184112
   3 H :    0.179267
   4 O :   -0.465715
   5 C :   -0.557347
   6 N :   -0.370069
   7 C :   -0.310977
   8 H :    0.172694
   9 H :    0.158880
  10 H :    0.162769
  11 C :   -0.326155
  12 H :    0.155323
  13 H :    0.154557
  14 H :    0.205538
  15 N :   -0.379204
  16 C :   -0.257261
  17 H :    0.186187
  18 H :    0.172069
  19 C :   -0.329051
  20 H :    0.207424
  21 H :    0.156142
  22 H :    0.142997
  23 C :    0.528746
  24 O :   -0.476101
Sum of atomic charges:    0.0000000

LOEWDIN ATOMIC CHARGES
----------------------
   0 C :    0.111417
   1 H :    0.148658
   2 H :    0.152074
   3 H :    0.150324
   4 O :   -0.273796
   5 C :   -0.394513
   6 N :   -0.085683
   7 C :   -0.272241
   8 H :    0.131187
   9 H :    0.129828
  10 H :    0.133949
  11 C :   -0.278322
  12 H :    0.125326
  13 H :    0.124615
  14 H :    0.157895
  15 N :   -0.103715
  16 C :   -0.179935
  17 H :    0.144362
  18 H :    0.146113
  19 C :   -0.281146
  20 H :    0.158784
  21 H :    0.123107
  22 H :    0.116302
  23 C :    0.092921
  24 O :   -0.277510

  Mayer bond orders larger than 0.100000
B(  0-C ,  4-O ) :   1.8607 B(  0-C ,  5-C ) :   0.9846 B(  0-C , 15-N ) :   1.0975
B(  1-H ,  5-C ) :   0.9187 B(  2-H ,  5-C ) :   0.9386 B(  3-H ,  5-C ) :   0.9259
B(  6-N ,  7-C ) :   0.9600 B(  6-N , 11-C ) :   0.9527 B(  6-N , 23-C ) :   1.1467
B(  7-C ,  8-H ) :   0.9308 B(  7-C ,  9-H ) :   0.9375 B(  7-C , 10-H ) :   0.9322
B( 11-C , 12-H ) :   0.9401 B( 11-C , 13-H ) :   0.9405 B( 11-C , 14-H ) :   0.9179
B( 15-N , 16-C ) :   0.9340 B( 15-N , 19-C ) :   0.9536 B( 16-C , 17-H ) :   0.9156
B( 16-C , 18-H ) :   0.9221 B( 16-C , 23-C ) :   0.9282 B( 19-C , 20-H ) :   0.9145
B( 19-C , 21-H ) :   0.9405 B( 19-C , 22-H ) :   0.9339 B( 23-C , 24-O ) :   1.8120

Dispersion correction           -0.039925766
FINAL SINGLE POINT ENERGY      -534.850906303665

DIPOLE MOMENT
-------------
                                X             Y             Z
Electronic contribution:     -2.37542       3.61520       2.05213
Nuclear contribution   :      3.08829      -4.80969      -1.98845
                        -----------------------------------------
Total Dipole Moment    :      0.71287      -1.19449       0.06368
                        -----------------------------------------
Magnitude (a.u.)       :      1.39249
Magnitude (Debye)      :      3.53944

Dispersion correction in the Hessian             ... Starting D4

VIBRATIONAL FREQUENCIES
-----------------------

Scaling factor for frequencies =  1.000000000  (already applied!)

   0:         0.00 cm**-1
   1:         0.00 cm**-1
   2:         0.00 cm**-1
   3:         0.00 cm**-1
   4:         0.00 cm**-1
   5:         0.00 cm**-1
   6:        47.06 cm**-1
   7:        63.65 cm**-1
   8:        87.24 cm**-1
   9:       108.37 cm**-1
  10:       115.10 cm**-1
  11:       135.12 cm**-1
  12:       154.26 cm**-1
  13:       171.33 cm**-1
  14:       192.18 cm**-1
  15:       225.71 cm**-1
  16:       265.18 cm**-1
  17:       302.03 cm**-1
  18:       313.13 cm**-1
  19:       376.52 cm**-1
  20:       407.56 cm**-1
  21:       452.79 cm**-1
  22:       478.58 cm**-1
  23:       565.43 cm**-1
  24:       595.44 cm**-1
  25:       615.19 cm**-1
  26:       685.31 cm**-1
  27:       744.72 cm**-1
  28:       795.75 cm**-1
  29:       976.23 cm**-1
  30:       992.60 cm**-1
  31:      1007.05 cm**-1
  32:      1045.73 cm**-1
  33:      1062.41 cm**-1
  34:      1091.90 cm**-1
  35:      1139.00 cm**-1
  36:      1161.23 cm**-1
  37:      1170.67 cm**-1
  38:      1180.32 cm**-1
  39:      1195.12 cm**-1
  40:      1257.84 cm**-1
  41:      1296.56 cm**-1
  42:      1306.44 cm**-1
  43:      1350.05 cm**-1
  44:      1418.59 cm**-1
  45:      1434.88 cm**-1
  46:      1444.01 cm**-1
  47:      1455.41 cm**-1
  48:      1465.54 cm**-1
  49:      1494.33 cm**-1
  50:      1500.89 cm**-1
  51:      1513.05 cm**-1
  52:      1519.12 cm**-1
  53:      1522.27 cm**-1
  54:      1527.46 cm**-1
  55:      1529.00 cm**-1
  56:      1534.45 cm**-1
  57:      1549.88 cm**-1
  58:      1559.87 cm**-1
  59:      1763.86 cm**-1
  60:      1772.40 cm**-1
  61:      3029.07 cm**-1
  62:      3032.11 cm**-1
  63:      3041.99 cm**-1
  64:      3059.67 cm**-1
  65:      3068.03 cm**-1
  66:      3078.62 cm**-1
  67:      3081.91 cm**-1
  68:      3095.36 cm**-1
  69:      3099.99 cm**-1
  70:      3135.12 cm**-1
  71:      3174.99 cm**-1
  72:      3175.92 cm**-1
  73:      3190.18 cm**-1
  74:      3191.06 cm**-1

IR SPECTRUM
-----------

 Mode   freq       eps      Int      T**2         TX        TY        TZ
       cm**-1   L/(mol*cm) km/mol    a.u.
----------------------------------------------------------------------------
  6:     47.06   0.000679    3.43  0.004503  ( 0.050294 -0.044382  0.001920)
  7:     63.65   0.000598    3.02  0.002932  (-0.028584 -0.002963  0.045892)
  8:     87.24   0.000152    0.77  0.000545  ( 0.012489 -0.013875 -0.014025)
  9:    108.37   0.000195    0.99  0.000562  (-0.013948  0.014114 -0.012959)
 10:    115.10   0.000181    0.91  0.000490  (-0.003396 -0.002285 -0.021753)
 11:    135.12   0.000252    1.27  0.000582  ( 0.013422 -0.006690 -0.018902)
 12:    154.26   0.000732    3.70  0.001480  (-0.022648  0.031073  0.001326)
 13:    171.33   0.000055    0.28  0.000101  (-0.007382  0.005199  0.004361)
 14:    192.18   0.000155    0.79  0.000252  ( 0.004465 -0.014511  0.004673)
 15:    225.71   0.001231    6.22  0.001701  (-0.024541  0.026493 -0.019930)
 16:    265.18   0.001095    5.53  0.001288  ( 0.034240 -0.010023 -0.003916)
 17:    302.03   0.000768    3.88  0.000794  ( 0.012528  0.010202 -0.023075)
 18:    313.13   0.000526    2.66  0.000524  ( 0.016426 -0.010938 -0.011591)
 19:    376.52   0.001352    6.83  0.001121  ( 0.024816 -0.021544 -0.006386)
 20:    407.56   0.000689    3.48  0.000527  (-0.013731  0.000465  0.018401)
 21:    452.79   0.000305    1.54  0.000210  (-0.007297 -0.008004  0.009639)
 22:    478.58   0.003239   16.37  0.002112  (-0.034966 -0.026638  0.013413)
 23:    565.43   0.002515   12.71  0.001388  (-0.017438  0.003811 -0.032703)
 24:    595.44   0.000601    3.04  0.000315  ( 0.014671 -0.005615 -0.008270)
 25:    615.19   0.003012   15.22  0.001528  (-0.026154  0.028309  0.006498)
 26:    685.31   0.000887    4.48  0.000404  ( 0.005698 -0.015546 -0.011383)
 27:    744.72   0.002186   11.05  0.000916  (-0.019206  0.021582  0.009030)
 28:    795.75   0.002225   11.25  0.000873  ( 0.010946 -0.027413 -0.001202)
 29:    976.23   0.000590    2.98  0.000189  ( 0.012769  0.003003 -0.004078)
 30:    992.60   0.001521    7.69  0.000478  (-0.015159  0.011328  0.010962)
 31:   1007.05   0.005041   25.48  0.001562  (-0.015334  0.004060  0.036201)
 32:   1045.73   0.007984   40.35  0.002383  ( 0.029009 -0.030910  0.024201)
 33:   1062.41   0.001822    9.21  0.000535  ( 0.018413 -0.005838 -0.012731)
 34:   1091.90   0.001166    5.90  0.000333  ( 0.011138  0.014240  0.002559)
 35:   1139.00   0.000336    1.70  0.000092  (-0.004752 -0.006308 -0.005438)
 36:   1161.23   0.001831    9.25  0.000492  ( 0.001262 -0.019158 -0.011115)
 37:   1170.67   0.005155   26.05  0.001374  (-0.027340  0.018389 -0.016989)
 38:   1180.32   0.000747    3.78  0.000198  (-0.001435 -0.010416 -0.009330)
 39:   1195.12   0.010286   51.98  0.002686  (-0.028513  0.024304  0.035807)
 40:   1257.84   0.015136   76.49  0.003755  (-0.012571 -0.053686  0.026742)
 41:   1296.56   0.009316   47.08  0.002242  ( 0.043864  0.009148 -0.015314)
 42:   1306.44   0.000834    4.22  0.000199  ( 0.011823 -0.007699  0.000502)
 43:   1350.05   0.016404   82.90  0.003792  ( 0.030359 -0.024670  0.047554)
 44:   1418.59   0.001162    5.87  0.000256  (-0.013649  0.001499 -0.008196)
 45:   1434.88   0.016760   84.70  0.003645  (-0.005723  0.030518 -0.051778)
 46:   1444.01   0.018020   91.06  0.003894  ( 0.036317 -0.041028 -0.029867)
 47:   1455.41   0.005410   27.34  0.001160  (-0.029594 -0.003758  0.016433)
 48:   1465.54   0.009043   45.70  0.001925  (-0.000793  0.042636 -0.010344)
 49:   1494.33   0.002952   14.92  0.000617  ( 0.008318  0.021923 -0.008170)
 50:   1500.89   0.003567   18.03  0.000742  (-0.025972 -0.002874 -0.007670)
 51:   1513.05   0.003626   18.33  0.000748  ( 0.014520 -0.021693 -0.008155)
 52:   1519.12   0.001706    8.62  0.000350  (-0.014460 -0.007202  0.009455)
 53:   1522.27   0.001923    9.72  0.000394  (-0.001018 -0.019697 -0.002280)
 54:   1527.46   0.002334   11.79  0.000477  (-0.004895 -0.007634  0.019863)
 55:   1529.00   0.001307    6.60  0.000267  (-0.006730  0.003417  0.014483)
 56:   1534.45   0.002868   14.49  0.000583  (-0.023955  0.001643 -0.002575)
 57:   1549.88   0.006070   30.67  0.001222  ( 0.015044 -0.024460  0.019937)
 58:   1559.87   0.007493   37.87  0.001499  (-0.023683  0.014273  0.027100)
 59:   1763.86   0.059475  300.56  0.010522  ( 0.022893  0.076036  0.064938)
 60:   1772.40   0.052149  263.54  0.009182  (-0.077842  0.015894 -0.053570)
 61:   3029.07   0.010146   51.27  0.001045  ( 0.012170  0.024485 -0.017253)
 62:   3032.11   0.007286   36.82  0.000750  ( 0.024786  0.003257 -0.011179)
 63:   3041.99   0.010722   54.18  0.001100  (-0.003887  0.019882  0.026258)
 64:   3059.67   0.004421   22.34  0.000451  (-0.002760  0.002063 -0.020954)
 65:   3068.03   0.000599    3.03  0.000061  ( 0.005897  0.004351 -0.002695)
 66:   3078.62   0.008819   44.57  0.000894  (-0.020208  0.018390  0.012139)
 67:   3081.91   0.008226   41.57  0.000833  ( 0.018079 -0.015641  0.016168)
 68:   3095.36   0.005438   27.48  0.000548  (-0.017809  0.015103 -0.001728)
 69:   3099.99   0.001857    9.38  0.000187  ( 0.002283 -0.012490 -0.005069)
 70:   3135.12   0.001587    8.02  0.000158  ( 0.006312 -0.007777 -0.007593)
 71:   3174.99   0.001324    6.69  0.000130  ( 0.007476 -0.005907  0.006271)
 72:   3175.92   0.003198   16.16  0.000314  ( 0.010032  0.008603 -0.011812)
 73:   3190.18   0.000294    1.48  0.000029  ( 0.003759  0.003821  0.000009)
 74:   3191.06   0.000228    1.15  0.000022  (-0.003554 -0.002652  0.001611)

--------------------------
THERMOCHEMISTRY AT 298.15K
--------------------------

Temperature         ... 298.15 K
Pressure            ... 1.00 atm
Total Mass          ... 158.20 AMU

Throughout the following assumptions are being made:
  (1) The electronic state is orbitally nondegenerate
  (2) There are no thermally accessible electronically excited states
  (3) Hindered rotations indicated by low frequency modes are not
      treated as such but are treated as vibrations and this may
      cause some error
  (4) All equations used are the standard statistical mechanics
      equations for an ideal gas
  (5) All vibrations are strictly harmonic

freq.      47.06  E(vib)   ...       0.53
freq.      63.65  E(vib)   ...       0.51
freq.      87.24  E(vib)   ...       0.48
freq.     108.37  E(vib)   ...       0.45
freq.     115.10  E(vib)   ...       0.44
freq.     135.12  E(vib)   ...       0.42
freq.     154.26  E(vib)   ...       0.40
freq.     171.33  E(vib)   ...       0.38
freq.     192.18  E(vib)   ...       0.36
freq.     225.71  E(vib)   ...       0.33
freq.     265.18  E(vib)   ...       0.29
freq.     302.03  E(vib)   ...       0.26
freq.     313.13  E(vib)   ...       0.25
freq.     376.52  E(vib)   ...       0.21
freq.     407.56  E(vib)   ...       0.19
freq.     452.79  E(vib)   ...       0.16
freq.     478.58  E(vib)   ...       0.15
freq.     565.43  E(vib)   ...       0.11
freq.     595.44  E(vib)   ...       0.10
freq.     615.19  E(vib)   ...       0.10
freq.     685.31  E(vib)   ...       0.07
freq.     744.72  E(vib)   ...       0.06
freq.     795.75  E(vib)   ...       0.05
freq.     976.23  E(vib)   ...       0.03
freq.     992.60  E(vib)   ...       0.02
freq.    1007.05  E(vib)   ...       0.02
freq.    1045.73  E(vib)   ...       0.02
freq.    1062.41  E(vib)   ...       0.02
freq.    1091.90  E(vib)   ...       0.02
freq.    1139.00  E(vib)   ...       0.01
freq.    1161.23  E(vib)   ...       0.01
freq.    1170.67  E(vib)   ...       0.01
freq.    1180.32  E(vib)   ...       0.01
freq.    1195.12  E(vib)   ...       0.01
freq.    1257.84  E(vib)   ...       0.01
freq.    1296.56  E(vib)   ...       0.01
freq.    1306.44  E(vib)   ...       0.01
freq.    1350.05  E(vib)   ...       0.01
freq.    1418.59  E(vib)   ...       0.00
freq.    1434.88  E(vib)   ...       0.00
freq.    1444.01  E(vib)   ...       0.00
freq.    1455.41  E(vib)   ...       0.00
freq.    1465.54  E(vib)   ...       0.00
freq.    1494.33  E(vib)   ...       0.00
freq.    1500.89  E(vib)   ...       0.00
freq.    1513.05  E(vib)   ...       0.00
freq.    1519.12  E(vib)   ...       0.00
freq.    1522.27  E(vib)   ...       0.00
freq.    1527.46  E(vib)   ...       0.00
freq.    1529.00  E(vib)   ...       0.00
freq.    1534.45  E(vib)   ...       0.00
freq.    1549.88  E(vib)   ...       0.00
freq.    1559.87  E(vib)   ...       0.00
freq.    1763.86  E(vib)   ...       0.00
freq.    1772.40  E(vib)   ...       0.00
freq.    3029.07  E(vib)   ...       0.00
freq.    3032.11  E(vib)   ...       0.00
freq.    3041.99  E(vib)   ...       0.00
freq.    3059.67  E(vib)   ...       0.00
freq.    3068.03  E(vib)   ...       0.00
freq.    3078.62  E(vib)   ...       0.00
freq.    3081.91  E(vib)   ...       0.00
freq.    3095.36  E(vib)   ...       0.00
freq.    3099.99  E(vib)   ...       0.00
freq.    3135.12  E(vib)   ...       0.00
freq.    3174.99  E(vib)   ...       0.00
freq.    3175.92  E(vib)   ...       0.00
freq.    3190.18  E(vib)   ...       0.00
freq.    3191.06  E(vib)   ...       0.00

------------
INNER ENERGY
------------

The inner energy is: U= E(el) + E(ZPE) + E(vib) + E(rot) + E(trans)
    E(el)   - is the total energy from the electronic structure calculation
              = E(kin-el) + E(nuc-el) + E(el-el) + E(nuc-nuc)
    E(ZPE)  - the the zero temperature vibrational energy from the frequency calculation
    E(vib)  - the the finite temperature correction to E(ZPE) due to population
              of excited vibrational states
    E(rot)  - is the rotational thermal energy
    E(trans)- is the translational thermal energy

Summary of contributions to the inner energy U:
Electronic energy                ...   -534.85090630 Eh
Zero point energy                ...      0.21549154 Eh     135.22 kcal/mol
Thermal vibrational correction   ...      0.01047011 Eh       6.57 kcal/mol
Thermal rotational correction    ...      0.00141627 Eh       0.89 kcal/mol
Thermal translational correction ...      0.00141627 Eh       0.89 kcal/mol
-----------------------------------------------------------------------
Total thermal energy                   -534.62211211 Eh

Summary of corrections to the electronic energy:
(perhaps to be used in another calculation)
Total thermal correction                  0.01330265 Eh       8.35 kcal/mol
Non-thermal (ZPE) correction              0.21549154 Eh     135.22 kcal/mol
-----------------------------------------------------------------------
Total correction                          0.22879419 Eh     143.57 kcal/mol

--------
ENTHALPY
--------

The enthalpy is H = U + kB*T
                kB is Boltzmann's constant
Total free energy                 ...   -534.62211211 Eh
Thermal Enthalpy correction       ...      0.00094421 Eh       0.59 kcal/mol
-----------------------------------------------------------------------
Total Enthalpy                    ...   -534.62116791 Eh

Note: Only C1 symmetry has been detected, increase convergence thresholds
      if your molecule has a higher symmetry. Symmetry factor of 1.0 is
      used for the rotational entropy correction.

Note: Rotational entropy computed according to Herzberg
Infrared and Raman Spectra, Chapter V,1, Van Nostrand Reinhold, 1945
Point Group:  C1, Symmetry Number:   1
Rotational constants in cm-1:     0.053753     0.025816     0.023934

Vibrational entropy computed according to the QRRHO of S. Grimme
Chem.Eur.J. 2012 18 9955

-------
ENTROPY
-------

The entropy contributions are T*S = T*(S(el)+S(vib)+S(rot)+S(trans))
     S(el)   - electronic entropy
     S(vib)  - vibrational entropy
     S(rot)  - rotational entropy
     S(trans)- translational entropy
The entropies will be listed as multiplied by the temperature to get
units of energy

Electronic entropy                ...      0.00000000 Eh      0.00 kcal/mol
Vibrational entropy               ...      0.01877060 Eh     11.78 kcal/mol
Rotational entropy                ...      0.01437927 Eh      9.02 kcal/mol
Translational entropy             ...      0.01952088 Eh     12.25 kcal/mol
-----------------------------------------------------------------------

                             ****ORCA TERMINATED NORMALLY****
TOTAL RUN TIME: 0 days 0 hours 13 minutes 2 seconds 161 msec
