                         Program Version 5.0.4 -  RELEASE  -
|  1> ! OPT FREQ B3LYP 6-31G(d) D4 AUTOAUX CPCM(water)
|  2>
|  3> %PAL NPROCS 4 END
|  4>
|  5> %maxcore 3375
|  6>
|  7> *xyzfile 0 1 /users/fjb15167/WWenergy/structures/NmO.xyz
|  8>
|  9>                          ****END OF INPUT****
 Total Charge           Charge          ....    0
 Multiplicity           Mult            ....    1
 Number of Electrons    NEL             ....  110
Dispersion correction           -0.053263599
FINAL SINGLE POINT ENERGY      -688.622322308706
Dispersion correction            ... Starting D4
Dispersion correction           -0.052648635
FINAL SINGLE POINT ENERGY      -688.622912459352
Dispersion correction            ... Starting D4
Dispersion correction           -0.053176690
FINAL SINGLE POINT ENERGY      -688.623092941668
Dispersion correction            ... Starting D4
FINAL SINGLE POINT ENERGY      -688.623175258262
FINAL SINGLE POINT ENERGY      -688.623222316174
FINAL SINGLE POINT ENERGY      -688.623241467066
Dispersion correction           -0.053263493
FINAL SINGLE POINT ENERGY      -688.623248423172
Dispersion correction            ... Starting D4
Dispersion correction           -0.053260295
FINAL SINGLE POINT ENERGY      -688.623251515941
Dispersion correction            ... Starting D4
                    ***********************HURRAY********************

CARTESIAN COORDINATES (ANGSTROEM)
---------------------------------
  C      2.972229   -1.447442   -0.618013
  H      2.319746   -1.800945   -1.422037
  H      3.111025   -2.274852    0.087805
  H      3.942001   -1.176362   -1.038252
  C      2.411689   -0.224902    0.085338
  O      3.083615    0.808795    0.193579
  N      1.145386   -0.315709    0.597272
  C      0.610493    0.795406    1.383771
  H      0.443185    0.463436    2.413204
  H      1.355172    1.591058    1.387249
  C      0.310059   -1.516904    0.513542
  H      0.930376   -2.414092    0.572747
  H     -0.340359   -1.519506    1.392690
  C     -0.554235   -1.568423   -0.760500
  H     -1.036883   -0.598964   -0.939398
  H      0.069762   -1.793930   -1.631372
  C     -0.756379    1.277882    0.881204
  N     -0.810054    1.946974   -0.300461
  O     -1.765094    1.030988    1.556447
  C      0.327210    2.191172   -1.180409
  H      0.296829    1.515623   -2.046165
  H      0.276355    3.222352   -1.547483
  H      1.275687    2.053559   -0.664593
  C     -2.110808    2.311570   -0.851917
  H     -2.368426    1.656617   -1.695432
  H     -2.866719    2.212030   -0.074644
  H     -2.079127    3.345905   -1.210946
  O     -1.523090   -2.602725   -0.671133
  C     -2.717303   -2.192078   -0.015861
  H     -3.217490   -1.387953   -0.576434
  H     -3.373849   -3.065435    0.025787
  H     -2.532003   -1.835145    1.006414

 Multiplicity           Mult            ....    1
 Number of Electrons    NEL             ....  110
 Basis Dimension        Dim             ....  232

ORBITAL ENERGIES
----------------

  NO   OCC          E(Eh)            E(eV)
   0   2.0000     -19.142082      -520.8825
   1   2.0000     -19.111146      -520.0407
   2   2.0000     -19.108706      -519.9743
   3   2.0000     -14.363551      -390.8521
   4   2.0000     -14.360469      -390.7682
   5   2.0000     -10.285314      -279.8776
   6   2.0000     -10.280813      -279.7551
   7   2.0000     -10.220155      -278.1046
   8   2.0000     -10.212260      -277.8897
   9   2.0000     -10.210289      -277.8361
  10   2.0000     -10.209929      -277.8263
  11   2.0000     -10.199408      -277.5400
  12   2.0000     -10.196084      -277.4495
  13   2.0000     -10.173703      -276.8405
  14   2.0000      -1.034237       -28.1430
  15   2.0000      -1.026877       -27.9428
  16   2.0000      -1.026003       -27.9190
  17   2.0000      -0.935688       -25.4614
  18   2.0000      -0.927351       -25.2345
  19   2.0000      -0.764679       -20.8080
  20   2.0000      -0.748239       -20.3606
  21   2.0000      -0.718566       -19.5532
  22   2.0000      -0.706843       -19.2342
  23   2.0000      -0.683844       -18.6083
  24   2.0000      -0.670023       -18.2322
  25   2.0000      -0.613985       -16.7074
  26   2.0000      -0.553781       -15.0691
  27   2.0000      -0.538772       -14.6607
  28   2.0000      -0.513708       -13.9787
  29   2.0000      -0.494765       -13.4632
  30   2.0000      -0.481911       -13.1135
  31   2.0000      -0.472460       -12.8563
  32   2.0000      -0.466710       -12.6998
  33   2.0000      -0.463760       -12.6195
  34   2.0000      -0.458862       -12.4863
  35   2.0000      -0.442923       -12.0525
  36   2.0000      -0.432855       -11.7786
  37   2.0000      -0.413295       -11.2463
  38   2.0000      -0.403796       -10.9879
  39   2.0000      -0.401027       -10.9125
  40   2.0000      -0.396860       -10.7991
  41   2.0000      -0.394680       -10.7398
  42   2.0000      -0.392254       -10.6738
  43   2.0000      -0.385526       -10.4907
  44   2.0000      -0.383336       -10.4311
  45   2.0000      -0.373690       -10.1686
  46   2.0000      -0.362562        -9.8658
  47   2.0000      -0.354925        -9.6580
  48   2.0000      -0.349266        -9.5040
  49   2.0000      -0.311281        -8.4704
  50   2.0000      -0.267534        -7.2800
  51   2.0000      -0.255479        -6.9519
  52   2.0000      -0.253356        -6.8942
  53   2.0000      -0.238395        -6.4871
  54   2.0000      -0.232045        -6.3143
  55   0.0000       0.014924         0.4061
  56   0.0000       0.027015         0.7351
  57   0.0000       0.083918         2.2835
  58   0.0000       0.098469         2.6795
  59   0.0000       0.107596         2.9278

MULLIKEN ATOMIC CHARGES
-----------------------
   0 C :   -0.564125
   1 H :    0.195338
   2 H :    0.199720
   3 H :    0.182517
   4 C :    0.532254
   5 O :   -0.535746
   6 N :   -0.372214
   7 C :   -0.250618
   8 H :    0.183298
   9 H :    0.206882
  10 C :   -0.194242
  11 H :    0.186157
  12 H :    0.185001
  13 C :   -0.041833
  14 H :    0.157718
  15 H :    0.164038
  16 C :    0.514452
  17 N :   -0.357910
  18 O :   -0.542171
  19 C :   -0.346307
  20 H :    0.172715
  21 H :    0.175363
  22 H :    0.194175
  23 C :   -0.331772
  24 H :    0.173389
  25 H :    0.185535
  26 H :    0.174143
  27 O :   -0.494874
  28 C :   -0.218487
  29 H :    0.149695
  30 H :    0.165797
  31 H :    0.152111
Sum of atomic charges:    0.0000000

LOEWDIN ATOMIC CHARGES
----------------------
   0 C :   -0.393088
   1 H :    0.154133
   2 H :    0.159119
   3 H :    0.151057
   4 C :    0.116410
   5 O :   -0.337148
   6 N :   -0.069690
   7 C :   -0.178654
   8 H :    0.146183
   9 H :    0.160847
  10 C :   -0.175794
  11 H :    0.145530
  12 H :    0.144675
  13 C :   -0.113403
  14 H :    0.122913
  15 H :    0.129482
  16 C :    0.092717
  17 N :   -0.068158
  18 O :   -0.339889
  19 C :   -0.285211
  20 H :    0.132920
  21 H :    0.138132
  22 H :    0.148593
  23 C :   -0.280181
  24 H :    0.132993
  25 H :    0.147454
  26 H :    0.137711
  27 O :   -0.265489
  28 C :   -0.217064
  29 H :    0.115624
  30 H :    0.131917
  31 H :    0.115359

  Mayer bond orders larger than 0.100000
B(  0-C ,  1-H ) :   0.9182 B(  0-C ,  2-H ) :   0.9197 B(  0-C ,  3-H ) :   0.9382
B(  0-C ,  4-C ) :   0.9950 B(  4-C ,  5-O ) :   1.7463 B(  4-C ,  6-N ) :   1.1607
B(  6-N ,  7-C ) :   0.9496 B(  6-N , 10-C ) :   0.9156 B(  7-C ,  8-H ) :   0.9155
B(  7-C ,  9-H ) :   0.8926 B(  7-C , 16-C ) :   0.9382 B( 10-C , 11-H ) :   0.9219
B( 10-C , 12-H ) :   0.9198 B( 10-C , 13-C ) :   0.9612 B( 13-C , 14-H ) :   0.9161
B( 13-C , 15-H ) :   0.9309 B( 13-C , 27-O ) :   0.9263 B( 16-C , 17-N ) :   1.1979
B( 16-C , 18-O ) :   1.7490 B( 17-N , 18-O ) :   0.1012 B( 17-N , 19-C ) :   0.9496
B( 17-N , 23-C ) :   0.9459 B( 19-C , 20-H ) :   0.9300 B( 19-C , 21-H ) :   0.9338
B( 19-C , 22-H ) :   0.9038 B( 23-C , 24-H ) :   0.9332 B( 23-C , 25-H ) :   0.9258
B( 23-C , 26-H ) :   0.9366 B( 27-O , 28-C ) :   0.9343 B( 28-C , 29-H ) :   0.9325
B( 28-C , 30-H ) :   0.9490 B( 28-C , 31-H ) :   0.9248

Dispersion correction           -0.053263924
FINAL SINGLE POINT ENERGY      -688.623254145408

DIPOLE MOMENT
-------------
                                X             Y             Z
Electronic contribution:      3.65127       1.76782       5.17554
Nuclear contribution   :     -3.85615      -2.06019      -6.29933
                        -----------------------------------------
Total Dipole Moment    :     -0.20488      -0.29236      -1.12379
                        -----------------------------------------
Magnitude (a.u.)       :      1.17913
Magnitude (Debye)      :      2.99712

Dispersion correction in the Hessian             ... Starting D4

VIBRATIONAL FREQUENCIES
-----------------------

Scaling factor for frequencies =  1.000000000  (already applied!)

   0:         0.00 cm**-1
   1:         0.00 cm**-1
   2:         0.00 cm**-1
   3:         0.00 cm**-1
   4:         0.00 cm**-1
   5:         0.00 cm**-1
   6:        25.97 cm**-1
   7:        51.85 cm**-1
   8:        61.46 cm**-1
   9:        74.04 cm**-1
  10:        84.01 cm**-1
  11:        89.04 cm**-1
  12:       103.02 cm**-1
  13:       124.86 cm**-1
  14:       138.89 cm**-1
  15:       158.72 cm**-1
  16:       169.01 cm**-1
  17:       177.77 cm**-1
  18:       227.88 cm**-1
  19:       247.12 cm**-1
  20:       273.56 cm**-1
  21:       322.31 cm**-1
  22:       366.38 cm**-1
  23:       368.99 cm**-1
  24:       387.06 cm**-1
  25:       429.78 cm**-1
  26:       449.70 cm**-1
  27:       467.70 cm**-1
  28:       497.88 cm**-1
  29:       581.18 cm**-1
  30:       599.51 cm**-1
  31:       637.38 cm**-1
  32:       703.85 cm**-1
  33:       763.70 cm**-1
  34:       791.15 cm**-1
  35:       828.60 cm**-1
  36:       948.68 cm**-1
  37:       965.28 cm**-1
  38:      1003.56 cm**-1
  39:      1010.16 cm**-1
  40:      1043.17 cm**-1
  41:      1060.76 cm**-1
  42:      1064.84 cm**-1
  43:      1089.43 cm**-1
  44:      1112.72 cm**-1
  45:      1135.03 cm**-1
  46:      1147.39 cm**-1
  47:      1181.71 cm**-1
  48:      1184.13 cm**-1
  49:      1195.27 cm**-1
  50:      1224.54 cm**-1
  51:      1240.50 cm**-1
  52:      1279.70 cm**-1
  53:      1286.82 cm**-1
  54:      1308.87 cm**-1
  55:      1347.16 cm**-1
  56:      1361.98 cm**-1
  57:      1381.18 cm**-1
  58:      1411.36 cm**-1
  59:      1436.80 cm**-1
  60:      1441.35 cm**-1
  61:      1457.27 cm**-1
  62:      1472.24 cm**-1
  63:      1483.91 cm**-1
  64:      1488.95 cm**-1
  65:      1495.59 cm**-1
  66:      1501.50 cm**-1
  67:      1503.68 cm**-1
  68:      1506.65 cm**-1
  69:      1509.32 cm**-1
  70:      1516.25 cm**-1
  71:      1517.73 cm**-1
  72:      1524.96 cm**-1
  73:      1529.00 cm**-1
  74:      1531.73 cm**-1
  75:      1554.86 cm**-1
  76:      1704.64 cm**-1
  77:      1710.27 cm**-1
  78:      3010.74 cm**-1
  79:      3035.86 cm**-1
  80:      3040.90 cm**-1
  81:      3052.28 cm**-1
  82:      3066.30 cm**-1
  83:      3066.92 cm**-1
  84:      3085.07 cm**-1
  85:      3094.62 cm**-1
  86:      3097.02 cm**-1
  87:      3103.86 cm**-1
  88:      3104.72 cm**-1
  89:      3132.88 cm**-1
  90:      3136.77 cm**-1
  91:      3145.39 cm**-1
  92:      3166.70 cm**-1
  93:      3171.73 cm**-1
  94:      3192.55 cm**-1
  95:      3194.61 cm**-1

IR SPECTRUM
-----------

 Mode   freq       eps      Int      T**2         TX        TY        TZ
       cm**-1   L/(mol*cm) km/mol    a.u.
----------------------------------------------------------------------------
  6:     25.97   0.000407    2.05  0.004886  ( 0.002043  0.008675 -0.069329)
  7:     51.85   0.001042    5.27  0.006274  ( 0.059131  0.049941  0.016839)
  8:     61.46   0.001279    6.46  0.006494  ( 0.023897 -0.064554 -0.041904)
  9:     74.04   0.000467    2.36  0.001967  ( 0.005879  0.025436  0.035852)
 10:     84.01   0.000254    1.28  0.000944  (-0.017323  0.005524  0.024761)
 11:     89.04   0.000437    2.21  0.001533  ( 0.027697 -0.027016 -0.005975)
 12:    103.02   0.003284   16.59  0.009947  (-0.050712  0.053450 -0.067218)
 13:    124.86   0.001068    5.40  0.002670  ( 0.030222 -0.028165  0.031033)
 14:    138.89   0.000809    4.09  0.001817  (-0.026119  0.033331  0.004898)
 15:    158.72   0.000039    0.20  0.000077  ( 0.007104 -0.003647 -0.003674)
 16:    169.01   0.000183    0.92  0.000337  ( 0.003396 -0.008720 -0.015796)
 17:    177.77   0.000583    2.94  0.001023  ( 0.000821 -0.012802 -0.029297)
 18:    227.88   0.000232    1.17  0.000318  ( 0.006285  0.015542  0.006065)
 19:    247.12   0.001784    9.01  0.002252  (-0.025099  0.040280  0.000021)
 20:    273.56   0.001708    8.63  0.001948  ( 0.005103  0.042527  0.010659)
 21:    322.31   0.000869    4.39  0.000841  ( 0.020783  0.000482  0.020225)
 22:    366.38   0.004063   20.53  0.003461  (-0.000839  0.025773 -0.052876)
 23:    368.99   0.004151   20.98  0.003511  (-0.036529  0.014119 -0.044463)
 24:    387.06   0.001945    9.83  0.001568  ( 0.026911 -0.011218  0.026791)
 25:    429.78   0.000144    0.73  0.000105  (-0.007366 -0.000595 -0.007086)
 26:    449.70   0.003475   17.56  0.002411  ( 0.014330  0.042122  0.020780)
 27:    467.70   0.002026   10.24  0.001352  (-0.033546  0.006942  0.013344)
 28:    497.88   0.003562   18.00  0.002233  (-0.010236  0.036696  0.027956)
 29:    581.18   0.003842   19.41  0.002063  ( 0.038133 -0.012901  0.021027)
 30:    599.51   0.003291   16.63  0.001713  (-0.036059  0.001355 -0.020268)
 31:    637.38   0.004418   22.33  0.002163  (-0.019547 -0.019160  0.037601)
 32:    703.85   0.000788    3.98  0.000349  ( 0.002469  0.014126 -0.011986)
 33:    763.70   0.003108   15.71  0.001270  (-0.017767  0.024331 -0.019033)
 34:    791.15   0.003294   16.65  0.001299  ( 0.018874 -0.026492 -0.015539)
 35:    828.60   0.005319   26.88  0.002003  (-0.012156 -0.036918  0.022195)
 36:    948.68   0.005461   27.60  0.001796  (-0.000617  0.039976  0.014065)
 37:    965.28   0.001441    7.28  0.000466  ( 0.008357 -0.013685 -0.014444)
 38:   1003.56   0.006583   33.27  0.002047  (-0.002367  0.024257 -0.038119)
 39:   1010.16   0.009168   46.33  0.002832  ( 0.048017  0.009913  0.020698)
 40:   1043.17   0.000581    2.93  0.000174  (-0.008750  0.009801  0.001036)
 41:   1060.76   0.002016   10.19  0.000593  ( 0.017377 -0.013256  0.010743)
 42:   1064.84   0.006323   31.95  0.001853  ( 0.019538 -0.009107 -0.037261)
 43:   1089.43   0.002578   13.03  0.000738  (-0.026911 -0.003645  0.000907)
 44:   1112.72   0.029877  150.98  0.008379  ( 0.078346  0.036406 -0.030256)
 45:   1135.03   0.000610    3.08  0.000168  (-0.011630  0.005298  0.002109)
 46:   1147.39   0.017266   87.25  0.004696  (-0.064707  0.021248 -0.007578)
 47:   1181.71   0.011743   59.34  0.003101  (-0.023219 -0.028685  0.041701)
 48:   1184.13   0.000348    1.76  0.000092  ( 0.003186  0.007155 -0.005512)
 49:   1195.27   0.021132  106.79  0.005517  ( 0.054295  0.018238 -0.047295)
 50:   1224.54   0.008042   40.64  0.002049  (-0.033869 -0.020456 -0.021998)
 51:   1240.50   0.003178   16.06  0.000799  (-0.027463  0.003698 -0.005622)
 52:   1279.70   0.023442  118.47  0.005717  ( 0.060020 -0.018835 -0.041946)
 53:   1286.82   0.018944   95.73  0.004594  ( 0.061550 -0.021040  0.019050)
 54:   1308.87   0.004975   25.14  0.001186  ( 0.017014 -0.025594 -0.015541)
 55:   1347.16   0.006056   30.60  0.001403  ( 0.036875 -0.006243 -0.002018)
 56:   1361.98   0.000995    5.03  0.000228  (-0.001489  0.003096  0.014701)
 57:   1381.18   0.004617   23.33  0.001043  ( 0.025578  0.019502  0.002951)
 58:   1411.36   0.003220   16.27  0.000712  (-0.003369 -0.021450 -0.015507)
 59:   1436.80   0.001434    7.25  0.000311  ( 0.016555 -0.005551  0.002567)
 60:   1441.35   0.014593   73.75  0.003160  (-0.007386  0.028912 -0.047635)
 61:   1457.27   0.018970   95.87  0.004062  (-0.040949  0.035045 -0.034020)
 62:   1472.24   0.052227  263.93  0.011070  ( 0.099813  0.005095 -0.032890)
 63:   1483.91   0.003748   18.94  0.000788  (-0.011837 -0.025351 -0.002337)
 64:   1488.95   0.000757    3.82  0.000159  ( 0.004744  0.003875  0.011004)
 65:   1495.59   0.001001    5.06  0.000209  (-0.000830  0.000693 -0.014411)
 66:   1501.50   0.001161    5.87  0.000241  ( 0.002095  0.005372 -0.014423)
 67:   1503.68   0.002267   11.46  0.000470  ( 0.006334 -0.007250 -0.019436)
 68:   1506.65   0.005025   25.40  0.001041  (-0.023666  0.021464  0.004480)
 69:   1509.32   0.001105    5.59  0.000229  ( 0.014911 -0.000781 -0.002367)
 70:   1516.25   0.003045   15.39  0.000627  (-0.014834  0.017993  0.009102)
 71:   1517.73   0.005604   28.32  0.001152  (-0.026745 -0.019971  0.006170)
 72:   1524.96   0.001413    7.14  0.000289  (-0.002051  0.010821  0.012958)
 73:   1529.00   0.006059   30.62  0.001237  ( 0.016720  0.030837 -0.002484)
 74:   1531.73   0.005639   28.50  0.001149  ( 0.006728 -0.005024 -0.032838)
 75:   1554.86   0.017335   87.60  0.003479  ( 0.032394 -0.023031  0.043581)
 76:   1704.64   0.184286  931.30  0.033737  (-0.131163 -0.109650  0.067156)
 77:   1710.27   0.051794  261.75  0.009451  (-0.018284  0.005893  0.095297)
 78:   3010.74   0.013214   66.78  0.001370  (-0.032704  0.015079  0.008525)
 79:   3035.86   0.005896   29.80  0.000606  ( 0.020795  0.001694 -0.013069)
 80:   3040.90   0.018948   95.75  0.001944  (-0.011984  0.005857 -0.042030)
 81:   3052.28   0.012424   62.79  0.001270  (-0.000517  0.022946 -0.027267)
 82:   3066.30   0.001017    5.14  0.000103  ( 0.000781  0.004613  0.009032)
 83:   3066.92   0.010462   52.87  0.001064  (-0.012048  0.004859 -0.029929)
 84:   3085.07   0.005878   29.71  0.000595  ( 0.007751 -0.004853 -0.022605)
 85:   3094.62   0.009990   50.48  0.001007  ( 0.004183  0.024295 -0.019991)
 86:   3097.02   0.010662   53.88  0.001074  ( 0.001156  0.032738  0.001081)
 87:   3103.86   0.004300   21.73  0.000432  (-0.006290 -0.018984  0.005692)
 88:   3104.72   0.009222   46.60  0.000927  ( 0.017828 -0.018221 -0.016646)
 89:   3132.88   0.001983   10.02  0.000198  ( 0.002719 -0.001000  0.013752)
 90:   3136.77   0.008862   44.79  0.000882  ( 0.017140  0.024181  0.001778)
 91:   3145.39   0.008017   40.52  0.000795  ( 0.018180 -0.019292 -0.009629)
 92:   3166.70   0.001678    8.48  0.000165  (-0.009496  0.007512 -0.004332)
 93:   3171.73   0.002597   13.13  0.000256  ( 0.014286  0.006436 -0.003168)
 94:   3192.55   0.001171    5.92  0.000114  (-0.009293  0.002812  0.004493)
 95:   3194.61   0.000374    1.89  0.000037  (-0.001260 -0.005905 -0.000273)

--------------------------
THERMOCHEMISTRY AT 298.15K
--------------------------

Temperature         ... 298.15 K
Pressure            ... 1.00 atm
Total Mass          ... 202.25 AMU

Throughout the following assumptions are being made:
  (1) The electronic state is orbitally nondegenerate
  (2) There are no thermally accessible electronically excited states
  (3) Hindered rotations indicated by low frequency modes are not
      treated as such but are treated as vibrations and this may
      cause some error
  (4) All equations used are the standard statistical mechanics
      equations for an ideal gas
  (5) All vibrations are strictly harmonic

freq.      25.97  E(vib)   ...       0.56
freq.      51.85  E(vib)   ...       0.52
freq.      61.46  E(vib)   ...       0.51
freq.      74.04  E(vib)   ...       0.49
freq.      84.01  E(vib)   ...       0.48
freq.      89.04  E(vib)   ...       0.47
freq.     103.02  E(vib)   ...       0.46
freq.     124.86  E(vib)   ...       0.43
freq.     138.89  E(vib)   ...       0.42
freq.     158.72  E(vib)   ...       0.39
freq.     169.01  E(vib)   ...       0.38
freq.     177.77  E(vib)   ...       0.37
freq.     227.88  E(vib)   ...       0.33
freq.     247.12  E(vib)   ...       0.31
freq.     273.56  E(vib)   ...       0.29
freq.     322.31  E(vib)   ...       0.25
freq.     366.38  E(vib)   ...       0.22
freq.     368.99  E(vib)   ...       0.21
freq.     387.06  E(vib)   ...       0.20
freq.     429.78  E(vib)   ...       0.18
freq.     449.70  E(vib)   ...       0.17
freq.     467.70  E(vib)   ...       0.16
freq.     497.88  E(vib)   ...       0.14
freq.     581.18  E(vib)   ...       0.11
freq.     599.51  E(vib)   ...       0.10
freq.     637.38  E(vib)   ...       0.09
freq.     703.85  E(vib)   ...       0.07
freq.     763.70  E(vib)   ...       0.06
freq.     791.15  E(vib)   ...       0.05
freq.     828.60  E(vib)   ...       0.04
freq.     948.68  E(vib)   ...       0.03
freq.     965.28  E(vib)   ...       0.03
freq.    1003.56  E(vib)   ...       0.02
freq.    1010.16  E(vib)   ...       0.02
freq.    1043.17  E(vib)   ...       0.02
freq.    1060.76  E(vib)   ...       0.02
freq.    1064.84  E(vib)   ...       0.02
freq.    1089.43  E(vib)   ...       0.02
freq.    1112.72  E(vib)   ...       0.01
freq.    1135.03  E(vib)   ...       0.01
freq.    1147.39  E(vib)   ...       0.01
freq.    1181.71  E(vib)   ...       0.01
freq.    1184.13  E(vib)   ...       0.01
freq.    1195.27  E(vib)   ...       0.01
freq.    1224.54  E(vib)   ...       0.01
freq.    1240.50  E(vib)   ...       0.01
freq.    1279.70  E(vib)   ...       0.01
freq.    1286.82  E(vib)   ...       0.01
freq.    1308.87  E(vib)   ...       0.01
freq.    1347.16  E(vib)   ...       0.01
freq.    1361.98  E(vib)   ...       0.01
freq.    1381.18  E(vib)   ...       0.01
freq.    1411.36  E(vib)   ...       0.00
freq.    1436.80  E(vib)   ...       0.00
freq.    1441.35  E(vib)   ...       0.00
freq.    1457.27  E(vib)   ...       0.00
freq.    1472.24  E(vib)   ...       0.00
freq.    1483.91  E(vib)   ...       0.00
freq.    1488.95  E(vib)   ...       0.00
freq.    1495.59  E(vib)   ...       0.00
freq.    1501.50  E(vib)   ...       0.00
freq.    1503.68  E(vib)   ...       0.00
freq.    1506.65  E(vib)   ...       0.00
freq.    1509.32  E(vib)   ...       0.00
freq.    1516.25  E(vib)   ...       0.00
freq.    1517.73  E(vib)   ...       0.00
freq.    1524.96  E(vib)   ...       0.00
freq.    1529.00  E(vib)   ...       0.00
freq.    1531.73  E(vib)   ...       0.00
freq.    1554.86  E(vib)   ...       0.00
freq.    1704.64  E(vib)   ...       0.00
freq.    1710.27  E(vib)   ...       0.00
freq.    3010.74  E(vib)   ...       0.00
freq.    3035.86  E(vib)   ...       0.00
freq.    3040.90  E(vib)   ...       0.00
freq.    3052.28  E(vib)   ...       0.00
freq.    3066.30  E(vib)   ...       0.00
freq.    3066.92  E(vib)   ...       0.00
freq.    3085.07  E(vib)   ...       0.00
freq.    3094.62  E(vib)   ...       0.00
freq.    3097.02  E(vib)   ...       0.00
freq.    3103.86  E(vib)   ...       0.00
freq.    3104.72  E(vib)   ...       0.00
freq.    3132.88  E(vib)   ...       0.00
freq.    3136.77  E(vib)   ...       0.00
freq.    3145.39  E(vib)   ...       0.00
freq.    3166.70  E(vib)   ...       0.00
freq.    3171.73  E(vib)   ...       0.00
freq.    3192.55  E(vib)   ...       0.00
freq.    3194.61  E(vib)   ...       0.00

------------
INNER ENERGY
------------

The inner energy is: U= E(el) + E(ZPE) + E(vib) + E(rot) + E(trans)
    E(el)   - is the total energy from the electronic structure calculation
              = E(kin-el) + E(nuc-el) + E(el-el) + E(nuc-nuc)
    E(ZPE)  - the the zero temperature vibrational energy from the frequency calculation
    E(vib)  - the the finite temperature correction to E(ZPE) due to population
              of excited vibrational states
    E(rot)  - is the rotational thermal energy
    E(trans)- is the translational thermal energy

Summary of contributions to the inner energy U:
Electronic energy                ...   -688.62325415 Eh
Zero point energy                ...      0.27787320 Eh     174.37 kcal/mol
Thermal vibrational correction   ...      0.01403690 Eh       8.81 kcal/mol
Thermal rotational correction    ...      0.00141627 Eh       0.89 kcal/mol
Thermal translational correction ...      0.00141627 Eh       0.89 kcal/mol
-----------------------------------------------------------------------
Total thermal energy                   -688.32851151 Eh

Summary of corrections to the electronic energy:
(perhaps to be used in another calculation)
Total thermal correction                  0.01686944 Eh      10.59 kcal/mol
Non-thermal (ZPE) correction              0.27787320 Eh     174.37 kcal/mol
-----------------------------------------------------------------------
Total correction                          0.29474264 Eh     184.95 kcal/mol

--------
ENTHALPY
--------

The enthalpy is H = U + kB*T
                kB is Boltzmann's constant
Total free energy                 ...   -688.32851151 Eh
Thermal Enthalpy correction       ...      0.00094421 Eh       0.59 kcal/mol
-----------------------------------------------------------------------
Total Enthalpy                    ...   -688.32756730 Eh

Note: Only C1 symmetry has been detected, increase convergence thresholds
      if your molecule has a higher symmetry. Symmetry factor of 1.0 is
      used for the rotational entropy correction.

Note: Rotational entropy computed according to Herzberg
Infrared and Raman Spectra, Chapter V,1, Van Nostrand Reinhold, 1945
Point Group:  C1, Symmetry Number:   1
Rotational constants in cm-1:     0.023747     0.020090     0.013571

                             ****ORCA TERMINATED NORMALLY****
TOTAL RUN TIME: 0 days 0 hours 21 minutes 45 seconds 563 msec
