                         Program Version 5.0.4 -  RELEASE  -
|  1> ! OPT FREQ B3LYP 6-31G(d) D4 AUTOAUX
|  2> ! CPCM
|  3>
|  4> %cpcm
|  5> epsilon 9.8629
|  6> refrac  1.4295
|  7> end
|  8>
|  9> %PAL NPROCS 4 END
| 10>
| 11> %maxcore 3375
| 12>
| 13> *xyzfile 0 1 /users/fjb15167/WWenergy/structures/NmO.xyz
| 14>
| 15>                          ****END OF INPUT****
 Total Charge           Charge          ....    0
 Multiplicity           Mult            ....    1
 Number of Electrons    NEL             ....  110
Dispersion correction           -0.053263599
FINAL SINGLE POINT ENERGY      -688.620570042217
Dispersion correction            ... Starting D4
Dispersion correction           -0.052659948
FINAL SINGLE POINT ENERGY      -688.621095109782
Dispersion correction            ... Starting D4
Dispersion correction           -0.053148341
FINAL SINGLE POINT ENERGY      -688.621250917866
Dispersion correction            ... Starting D4
FINAL SINGLE POINT ENERGY      -688.621322196179
FINAL SINGLE POINT ENERGY      -688.621363294029
FINAL SINGLE POINT ENERGY      -688.621378457019
Dispersion correction           -0.053263639
FINAL SINGLE POINT ENERGY      -688.621384234161
Dispersion correction            ... Starting D4
Dispersion correction           -0.053267474
FINAL SINGLE POINT ENERGY      -688.621386498823
Dispersion correction            ... Starting D4
                    ***********************HURRAY********************

CARTESIAN COORDINATES (ANGSTROEM)
---------------------------------
  C      2.975006   -1.450406   -0.617819
  H      2.321434   -1.812222   -1.417288
  H      3.119970   -2.272631    0.092847
  H      3.942076   -1.177553   -1.042935
  C      2.412059   -0.225388    0.080007
  O      3.079553    0.811179    0.178800
  N      1.147891   -0.319060    0.598191
  C      0.612485    0.793672    1.382130
  H      0.446845    0.464641    2.412788
  H      1.356322    1.590086    1.381848
  C      0.313417   -1.520736    0.518265
  H      0.933417   -2.417956    0.582539
  H     -0.339102   -1.519492    1.395810
  C     -0.549533   -1.577995   -0.756523
  H     -1.025529   -0.606664   -0.943502
  H      0.074416   -1.813835   -1.624917
  C     -0.756580    1.269449    0.879426
  N     -0.812104    1.944854   -0.299664
  O     -1.764875    1.010566    1.549304
  C      0.324319    2.201225   -1.176633
  H      0.292037    1.538996   -2.052793
  H      0.275063    3.237874   -1.528802
  H      1.273754    2.054047   -0.665148
  C     -2.114333    2.305176   -0.849368
  H     -2.366905    1.656253   -1.699248
  H     -2.870068    2.192884   -0.073617
  H     -2.090030    3.343011   -1.199185
  O     -1.524000   -2.605276   -0.659364
  C     -2.720993   -2.177241   -0.020809
  H     -3.220144   -1.390644   -0.606745
  H     -3.376562   -3.049911    0.043711
  H     -2.540306   -1.788901    0.990691

 Multiplicity           Mult            ....    1
 Number of Electrons    NEL             ....  110
 Basis Dimension        Dim             ....  232

ORBITAL ENERGIES
----------------

  NO   OCC          E(Eh)            E(eV)
   0   2.0000     -19.142123      -520.8837
   1   2.0000     -19.110912      -520.0343
   2   2.0000     -19.108453      -519.9674
   3   2.0000     -14.363733      -390.8570
   4   2.0000     -14.360707      -390.7747
   5   2.0000     -10.285357      -279.8788
   6   2.0000     -10.280694      -279.7519
   7   2.0000     -10.221111      -278.1306
   8   2.0000     -10.212458      -277.8951
   9   2.0000     -10.211174      -277.8602
  10   2.0000     -10.210119      -277.8315
  11   2.0000     -10.200534      -277.5706
  12   2.0000     -10.197093      -277.4770
  13   2.0000     -10.174913      -276.8735
  14   2.0000      -1.034384       -28.1470
  15   2.0000      -1.026961       -27.9450
  16   2.0000      -1.026403       -27.9299
  17   2.0000      -0.935907       -25.4673
  18   2.0000      -0.927777       -25.2461
  19   2.0000      -0.765198       -20.8221
  20   2.0000      -0.748859       -20.3775
  21   2.0000      -0.719369       -19.5750
  22   2.0000      -0.707562       -19.2537
  23   2.0000      -0.684138       -18.6163
  24   2.0000      -0.670487       -18.2449
  25   2.0000      -0.614703       -16.7269
  26   2.0000      -0.554237       -15.0816
  27   2.0000      -0.539347       -14.6764
  28   2.0000      -0.514209       -13.9923
  29   2.0000      -0.495297       -13.4777
  30   2.0000      -0.482502       -13.1295
  31   2.0000      -0.472969       -12.8701
  32   2.0000      -0.467374       -12.7179
  33   2.0000      -0.464097       -12.6287
  34   2.0000      -0.459159       -12.4943
  35   2.0000      -0.443440       -12.0666
  36   2.0000      -0.433334       -11.7916
  37   2.0000      -0.413919       -11.2633
  38   2.0000      -0.404218       -10.9993
  39   2.0000      -0.401603       -10.9282
  40   2.0000      -0.397412       -10.8141
  41   2.0000      -0.395369       -10.7585
  42   2.0000      -0.393041       -10.6952
  43   2.0000      -0.385892       -10.5007
  44   2.0000      -0.384111       -10.4522
  45   2.0000      -0.374132       -10.1807
  46   2.0000      -0.362775        -9.8716
  47   2.0000      -0.355584        -9.6759
  48   2.0000      -0.349692        -9.5156
  49   2.0000      -0.311558        -8.4779
  50   2.0000      -0.267459        -7.2779
  51   2.0000      -0.255255        -6.9458
  52   2.0000      -0.253072        -6.8864
  53   2.0000      -0.238603        -6.4927
  54   2.0000      -0.232002        -6.3131
  55   0.0000       0.014806         0.4029
  56   0.0000       0.026940         0.7331
  57   0.0000       0.082579         2.2471
  58   0.0000       0.097009         2.6397
  59   0.0000       0.106645         2.9020

MULLIKEN ATOMIC CHARGES
-----------------------
   0 C :   -0.562909
   1 H :    0.192316
   2 H :    0.197200
   3 H :    0.183629
   4 C :    0.531368
   5 O :   -0.529234
   6 N :   -0.373161
   7 C :   -0.250375
   8 H :    0.182803
   9 H :    0.206868
  10 C :   -0.192812
  11 H :    0.183580
  12 H :    0.184670
  13 C :   -0.040336
  14 H :    0.156076
  15 H :    0.161218
  16 C :    0.514669
  17 N :   -0.358643
  18 O :   -0.535369
  19 C :   -0.346389
  20 H :    0.169718
  21 H :    0.173198
  22 H :    0.196696
  23 C :   -0.330925
  24 H :    0.170491
  25 H :    0.187853
  26 H :    0.171791
  27 O :   -0.492214
  28 C :   -0.217578
  29 H :    0.147971
  30 H :    0.164611
  31 H :    0.153221
Sum of atomic charges:   -0.0000000

LOEWDIN ATOMIC CHARGES
----------------------
   0 C :   -0.392784
   1 H :    0.152555
   2 H :    0.157788
   3 H :    0.151528
   4 C :    0.115558
   5 O :   -0.331635
   6 N :   -0.070847
   7 C :   -0.178603
   8 H :    0.145887
   9 H :    0.160769
  10 C :   -0.175780
  11 H :    0.144232
  12 H :    0.144688
  13 C :   -0.113163
  14 H :    0.122223
  15 H :    0.128059
  16 C :    0.092763
  17 N :   -0.069634
  18 O :   -0.334031
  19 C :   -0.285396
  20 H :    0.131398
  21 H :    0.136860
  22 H :    0.149624
  23 C :   -0.280107
  24 H :    0.131468
  25 H :    0.148586
  26 H :    0.136431
  27 O :   -0.263752
  28 C :   -0.216699
  29 H :    0.114761
  30 H :    0.131364
  31 H :    0.115888

  Mayer bond orders larger than 0.100000
B(  0-C ,  1-H ) :   0.9191 B(  0-C ,  2-H ) :   0.9208 B(  0-C ,  3-H ) :   0.9383
B(  0-C ,  4-C ) :   0.9935 B(  4-C ,  5-O ) :   1.7516 B(  4-C ,  6-N ) :   1.1573
B(  6-N ,  7-C ) :   0.9496 B(  6-N , 10-C ) :   0.9161 B(  7-C ,  8-H ) :   0.9159
B(  7-C ,  9-H ) :   0.8927 B(  7-C , 16-C ) :   0.9374 B( 10-C , 11-H ) :   0.9226
B( 10-C , 12-H ) :   0.9200 B( 10-C , 13-C ) :   0.9612 B( 13-C , 14-H ) :   0.9164
B( 13-C , 15-H ) :   0.9312 B( 13-C , 27-O ) :   0.9281 B( 16-C , 17-N ) :   1.1929
B( 16-C , 18-O ) :   1.7529 B( 17-N , 18-O ) :   0.1009 B( 17-N , 19-C ) :   0.9504
B( 17-N , 23-C ) :   0.9470 B( 19-C , 20-H ) :   0.9308 B( 19-C , 21-H ) :   0.9343
B( 19-C , 22-H ) :   0.9026 B( 23-C , 24-H ) :   0.9338 B( 23-C , 25-H ) :   0.9250
B( 23-C , 26-H ) :   0.9371 B( 27-O , 28-C ) :   0.9343 B( 28-C , 29-H ) :   0.9330
B( 28-C , 30-H ) :   0.9492 B( 28-C , 31-H ) :   0.9240

Dispersion correction           -0.053277773
FINAL SINGLE POINT ENERGY      -688.621388265553

DIPOLE MOMENT
-------------
                                X             Y             Z
Electronic contribution:      3.65588       1.72923       5.21893
Nuclear contribution   :     -3.85209      -1.98840      -6.28350
                        -----------------------------------------
Total Dipole Moment    :     -0.19622      -0.25916      -1.06457
                        -----------------------------------------
Magnitude (a.u.)       :      1.11310
Magnitude (Debye)      :      2.82927

Dispersion correction in the Hessian             ... Starting D4

VIBRATIONAL FREQUENCIES
-----------------------

Scaling factor for frequencies =  1.000000000  (already applied!)

   0:         0.00 cm**-1
   1:         0.00 cm**-1
   2:         0.00 cm**-1
   3:         0.00 cm**-1
   4:         0.00 cm**-1
   5:         0.00 cm**-1
   6:        28.78 cm**-1
   7:        54.57 cm**-1
   8:        60.44 cm**-1
   9:        76.58 cm**-1
  10:        85.40 cm**-1
  11:        89.51 cm**-1
  12:       103.18 cm**-1
  13:       125.07 cm**-1
  14:       139.25 cm**-1
  15:       156.64 cm**-1
  16:       169.31 cm**-1
  17:       178.63 cm**-1
  18:       227.79 cm**-1
  19:       246.55 cm**-1
  20:       274.19 cm**-1
  21:       322.25 cm**-1
  22:       366.87 cm**-1
  23:       368.73 cm**-1
  24:       386.67 cm**-1
  25:       429.97 cm**-1
  26:       449.90 cm**-1
  27:       467.88 cm**-1
  28:       497.00 cm**-1
  29:       581.42 cm**-1
  30:       598.94 cm**-1
  31:       637.29 cm**-1
  32:       703.77 cm**-1
  33:       764.10 cm**-1
  34:       791.61 cm**-1
  35:       828.68 cm**-1
  36:       949.78 cm**-1
  37:       966.00 cm**-1
  38:      1003.93 cm**-1
  39:      1010.24 cm**-1
  40:      1043.05 cm**-1
  41:      1061.03 cm**-1
  42:      1064.91 cm**-1
  43:      1090.10 cm**-1
  44:      1113.46 cm**-1
  45:      1135.72 cm**-1
  46:      1147.45 cm**-1
  47:      1181.48 cm**-1
  48:      1184.60 cm**-1
  49:      1195.78 cm**-1
  50:      1225.22 cm**-1
  51:      1241.00 cm**-1
  52:      1280.29 cm**-1
  53:      1287.37 cm**-1
  54:      1309.01 cm**-1
  55:      1346.56 cm**-1
  56:      1361.76 cm**-1
  57:      1381.27 cm**-1
  58:      1411.94 cm**-1
  59:      1436.57 cm**-1
  60:      1442.14 cm**-1
  61:      1457.65 cm**-1
  62:      1472.05 cm**-1
  63:      1484.93 cm**-1
  64:      1490.12 cm**-1
  65:      1496.78 cm**-1
  66:      1502.96 cm**-1
  67:      1505.09 cm**-1
  68:      1507.73 cm**-1
  69:      1510.70 cm**-1
  70:      1517.99 cm**-1
  71:      1519.10 cm**-1
  72:      1525.77 cm**-1
  73:      1529.96 cm**-1
  74:      1532.39 cm**-1
  75:      1556.21 cm**-1
  76:      1709.74 cm**-1
  77:      1714.44 cm**-1
  78:      3010.49 cm**-1
  79:      3033.73 cm**-1
  80:      3039.04 cm**-1
  81:      3050.82 cm**-1
  82:      3065.84 cm**-1
  83:      3067.82 cm**-1
  84:      3084.99 cm**-1
  85:      3094.00 cm**-1
  86:      3094.39 cm**-1
  87:      3101.53 cm**-1
  88:      3102.27 cm**-1
  89:      3132.12 cm**-1
  90:      3137.23 cm**-1
  91:      3144.37 cm**-1
  92:      3166.93 cm**-1
  93:      3172.42 cm**-1
  94:      3192.50 cm**-1
  95:      3194.39 cm**-1

IR SPECTRUM
-----------

 Mode   freq       eps      Int      T**2         TX        TY        TZ
       cm**-1   L/(mol*cm) km/mol    a.u.
----------------------------------------------------------------------------
  6:     28.78   0.000391    1.98  0.004245  (-0.003894  0.001430 -0.065020)
  7:     54.57   0.000945    4.78  0.005406  ( 0.053143  0.049480  0.011565)
  8:     60.44   0.001073    5.42  0.005541  ( 0.026706 -0.058816 -0.036999)
  9:     76.58   0.000585    2.96  0.002383  ( 0.006520  0.026506  0.040473)
 10:     85.40   0.000221    1.12  0.000807  (-0.019920  0.003109  0.020021)
 11:     89.51   0.000451    2.28  0.001571  (-0.026295  0.028898  0.006657)
 12:    103.18   0.003068   15.50  0.009278  (-0.048736  0.052134 -0.064692)
 13:    125.07   0.000997    5.04  0.002487  ( 0.030289 -0.026211  0.029702)
 14:    139.25   0.000753    3.81  0.001688  (-0.025715  0.031719  0.004499)
 15:    156.64   0.000048    0.24  0.000096  (-0.008442  0.003871  0.003162)
 16:    169.31   0.000123    0.62  0.000228  ( 0.003429 -0.007318 -0.012735)
 17:    178.63   0.000648    3.27  0.001132  ( 0.001493 -0.016665 -0.029188)
 18:    227.79   0.000240    1.22  0.000329  ( 0.005489  0.016023  0.006524)
 19:    246.55   0.001552    7.84  0.001964  ( 0.024714 -0.036789  0.000184)
 20:    274.19   0.001717    8.68  0.001954  ( 0.002991  0.042899  0.010255)
 21:    322.25   0.000807    4.08  0.000782  ( 0.019545  0.001342  0.019954)
 22:    366.87   0.004132   20.88  0.003515  (-0.003189  0.025938 -0.053214)
 23:    368.73   0.003358   16.97  0.002842  (-0.034767  0.011140 -0.038846)
 24:    386.67   0.001973    9.97  0.001592  ( 0.027155 -0.011344  0.026942)
 25:    429.97   0.000098    0.49  0.000071  ( 0.005946  0.000126  0.005957)
 26:    449.90   0.003407   17.22  0.002363  ( 0.013701  0.041803  0.020684)
 27:    467.88   0.001857    9.38  0.001238  ( 0.032352 -0.006423 -0.012264)
 28:    497.00   0.003394   17.15  0.002131  (-0.010311  0.035623  0.027496)
 29:    581.42   0.003564   18.01  0.001913  ( 0.036610 -0.012530  0.020383)
 30:    598.94   0.003186   16.10  0.001660  ( 0.035554 -0.001704  0.019824)
 31:    637.29   0.004140   20.92  0.002027  (-0.019095 -0.018736  0.036214)
 32:    703.77   0.000705    3.56  0.000313  ( 0.002375  0.013736 -0.010880)
 33:    764.10   0.002890   14.60  0.001180  ( 0.017687 -0.023392  0.017896)
 34:    791.61   0.003072   15.53  0.001211  ( 0.018090 -0.025904 -0.014591)
 35:    828.68   0.004978   25.16  0.001875  (-0.010656 -0.036293  0.021071)
 36:    949.78   0.004946   24.99  0.001625  (-0.000862  0.038337  0.012433)
 37:    966.00   0.001518    7.67  0.000490  ( 0.007544 -0.015285 -0.014131)
 38:   1003.93   0.006003   30.34  0.001866  ( 0.000128 -0.024562  0.035535)
 39:   1010.24   0.008886   44.91  0.002745  (-0.046854 -0.007584 -0.022185)
 40:   1043.05   0.000648    3.28  0.000194  ( 0.009124 -0.010453 -0.001207)
 41:   1061.03   0.001824    9.22  0.000537  ( 0.016851 -0.012529  0.009780)
 42:   1064.91   0.005951   30.07  0.001744  (-0.018307  0.008508  0.036555)
 43:   1090.10   0.002306   11.65  0.000660  ( 0.025445  0.003539 -0.000484)
 44:   1113.46   0.027553  139.24  0.007722  ( 0.075343  0.035453 -0.028083)
 45:   1135.72   0.000558    2.82  0.000153  (-0.011112  0.005059  0.002048)
 46:   1147.45   0.016674   84.26  0.004535  (-0.063364  0.021413 -0.007821)
 47:   1181.48   0.009109   46.03  0.002406  (-0.019560 -0.025576  0.037001)
 48:   1184.60   0.001260    6.37  0.000332  ( 0.006995  0.012258 -0.011523)
 49:   1195.78   0.021084  106.55  0.005502  (-0.054542 -0.018501  0.046745)
 50:   1225.22   0.008055   40.71  0.002052  (-0.034780 -0.020264 -0.020769)
 51:   1241.00   0.003026   15.29  0.000761  (-0.026787  0.003410 -0.005624)
 52:   1280.29   0.021503  108.67  0.005241  ( 0.057194 -0.018314 -0.040430)
 53:   1287.37   0.018354   92.75  0.004449  ( 0.060869 -0.020559  0.017927)
 54:   1309.01   0.004893   24.73  0.001166  ( 0.017774 -0.025117 -0.014821)
 55:   1346.56   0.005748   29.05  0.001332  (-0.035927  0.006221  0.001628)
 56:   1361.76   0.000874    4.42  0.000200  ( 0.000129  0.003856  0.013619)
 57:   1381.27   0.004327   21.87  0.000978  ( 0.024662  0.019005  0.002860)
 58:   1411.94   0.002959   14.95  0.000654  ( 0.003010  0.020313  0.015240)
 59:   1436.57   0.001206    6.09  0.000262  ( 0.015517 -0.004595 -0.000218)
 60:   1442.14   0.013713   69.30  0.002967  (-0.008526  0.028779 -0.045458)
 61:   1457.65   0.019212   97.09  0.004113  ( 0.042205 -0.035326  0.032921)
 62:   1472.05   0.048769  246.46  0.010339  (-0.096165 -0.004808  0.032678)
 63:   1484.93   0.003673   18.56  0.000772  (-0.013411 -0.024282 -0.001538)
 64:   1490.12   0.000838    4.24  0.000176  (-0.006335 -0.003431 -0.011121)
 65:   1496.78   0.000906    4.58  0.000189  ( 0.000353 -0.000326  0.013733)
 66:   1502.96   0.001143    5.78  0.000237  ( 0.001542  0.004907 -0.014525)
 67:   1505.09   0.001969    9.95  0.000408  ( 0.005309 -0.006221 -0.018476)
 68:   1507.73   0.004909   24.81  0.001016  ( 0.022854 -0.021673 -0.004899)
 69:   1510.70   0.001023    5.17  0.000211  (-0.014398  0.000548  0.001929)
 70:   1517.99   0.003435   17.36  0.000706  (-0.020392  0.012622  0.011444)
 71:   1519.10   0.005331   26.94  0.001095  (-0.022492 -0.024079  0.003065)
 72:   1525.77   0.001304    6.59  0.000267  (-0.002716  0.008561  0.013638)
 73:   1529.96   0.005873   29.68  0.001198  ( 0.016763  0.029439 -0.007088)
 74:   1532.39   0.005046   25.50  0.001028  ( 0.004137 -0.008565 -0.030612)
 75:   1556.21   0.016298   82.36  0.003268  ( 0.030964 -0.022287  0.042576)
 76:   1709.74   0.171880  868.61  0.031372  (-0.126029 -0.106909  0.063709)
 77:   1714.44   0.047120  238.12  0.008577  (-0.018394  0.003726  0.090689)
 78:   3010.49   0.012682   64.09  0.001315  (-0.032499  0.014846  0.006164)
 79:   3033.73   0.005848   29.55  0.000602  ( 0.020045  0.002210 -0.013960)
 80:   3039.04   0.018322   92.59  0.001881  (-0.012445  0.005639 -0.041167)
 81:   3050.82   0.011543   58.33  0.001181  ( 0.000405  0.022181 -0.026239)
 82:   3065.84   0.000544    2.75  0.000055  (-0.000597  0.005671  0.004779)
 83:   3067.82   0.010239   51.74  0.001041  (-0.011029  0.004004 -0.030064)
 84:   3084.99   0.005441   27.50  0.000550  ( 0.007296 -0.004808 -0.021773)
 85:   3094.00   0.017514   88.51  0.001766  ( 0.002833  0.040583 -0.010558)
 86:   3094.39   0.002638   13.33  0.000266  (-0.002068  0.000249  0.016177)
 87:   3101.53   0.004380   22.13  0.000441  (-0.006128 -0.019265  0.005656)
 88:   3102.27   0.009160   46.29  0.000921  ( 0.017545 -0.018798 -0.016132)
 89:   3132.12   0.002022   10.22  0.000201  ( 0.003326 -0.000851  0.013772)
 90:   3137.23   0.008665   43.79  0.000862  ( 0.017922  0.023243  0.000688)
 91:   3144.37   0.007730   39.06  0.000767  ( 0.017187 -0.019678 -0.009194)
 92:   3166.93   0.001538    7.77  0.000152  (-0.009045  0.007301 -0.004055)
 93:   3172.42   0.002423   12.24  0.000238  ( 0.013816  0.006178 -0.003044)
 94:   3192.50   0.001079    5.45  0.000105  (-0.008948  0.003236  0.003862)
 95:   3194.39   0.000380    1.92  0.000037  (-0.000797 -0.006041  0.000092)

--------------------------
THERMOCHEMISTRY AT 298.15K
--------------------------

Temperature         ... 298.15 K
Pressure            ... 1.00 atm
Total Mass          ... 202.25 AMU

Throughout the following assumptions are being made:
  (1) The electronic state is orbitally nondegenerate
  (2) There are no thermally accessible electronically excited states
  (3) Hindered rotations indicated by low frequency modes are not
      treated as such but are treated as vibrations and this may
      cause some error
  (4) All equations used are the standard statistical mechanics
      equations for an ideal gas
  (5) All vibrations are strictly harmonic

freq.      28.78  E(vib)   ...       0.55
freq.      54.57  E(vib)   ...       0.52
freq.      60.44  E(vib)   ...       0.51
freq.      76.58  E(vib)   ...       0.49
freq.      85.40  E(vib)   ...       0.48
freq.      89.51  E(vib)   ...       0.47
freq.     103.18  E(vib)   ...       0.46
freq.     125.07  E(vib)   ...       0.43
freq.     139.25  E(vib)   ...       0.42
freq.     156.64  E(vib)   ...       0.40
freq.     169.31  E(vib)   ...       0.38
freq.     178.63  E(vib)   ...       0.37
freq.     227.79  E(vib)   ...       0.33
freq.     246.55  E(vib)   ...       0.31
freq.     274.19  E(vib)   ...       0.28
freq.     322.25  E(vib)   ...       0.25
freq.     366.87  E(vib)   ...       0.22
freq.     368.73  E(vib)   ...       0.21
freq.     386.67  E(vib)   ...       0.20
freq.     429.97  E(vib)   ...       0.18
freq.     449.90  E(vib)   ...       0.17
freq.     467.88  E(vib)   ...       0.16
freq.     497.00  E(vib)   ...       0.14
freq.     581.42  E(vib)   ...       0.11
freq.     598.94  E(vib)   ...       0.10
freq.     637.29  E(vib)   ...       0.09
freq.     703.77  E(vib)   ...       0.07
freq.     764.10  E(vib)   ...       0.06
freq.     791.61  E(vib)   ...       0.05
freq.     828.68  E(vib)   ...       0.04
freq.     949.78  E(vib)   ...       0.03
freq.     966.00  E(vib)   ...       0.03
freq.    1003.93  E(vib)   ...       0.02
freq.    1010.24  E(vib)   ...       0.02
freq.    1043.05  E(vib)   ...       0.02
freq.    1061.03  E(vib)   ...       0.02
freq.    1064.91  E(vib)   ...       0.02
freq.    1090.10  E(vib)   ...       0.02
freq.    1113.46  E(vib)   ...       0.01
freq.    1135.72  E(vib)   ...       0.01
freq.    1147.45  E(vib)   ...       0.01
freq.    1181.48  E(vib)   ...       0.01
freq.    1184.60  E(vib)   ...       0.01
freq.    1195.78  E(vib)   ...       0.01
freq.    1225.22  E(vib)   ...       0.01
freq.    1241.00  E(vib)   ...       0.01
freq.    1280.29  E(vib)   ...       0.01
freq.    1287.37  E(vib)   ...       0.01
freq.    1309.01  E(vib)   ...       0.01
freq.    1346.56  E(vib)   ...       0.01
freq.    1361.76  E(vib)   ...       0.01
freq.    1381.27  E(vib)   ...       0.01
freq.    1411.94  E(vib)   ...       0.00
freq.    1436.57  E(vib)   ...       0.00
freq.    1442.14  E(vib)   ...       0.00
freq.    1457.65  E(vib)   ...       0.00
freq.    1472.05  E(vib)   ...       0.00
freq.    1484.93  E(vib)   ...       0.00
freq.    1490.12  E(vib)   ...       0.00
freq.    1496.78  E(vib)   ...       0.00
freq.    1502.96  E(vib)   ...       0.00
freq.    1505.09  E(vib)   ...       0.00
freq.    1507.73  E(vib)   ...       0.00
freq.    1510.70  E(vib)   ...       0.00
freq.    1517.99  E(vib)   ...       0.00
freq.    1519.10  E(vib)   ...       0.00
freq.    1525.77  E(vib)   ...       0.00
freq.    1529.96  E(vib)   ...       0.00
freq.    1532.39  E(vib)   ...       0.00
freq.    1556.21  E(vib)   ...       0.00
freq.    1709.74  E(vib)   ...       0.00
freq.    1714.44  E(vib)   ...       0.00
freq.    3010.49  E(vib)   ...       0.00
freq.    3033.73  E(vib)   ...       0.00
freq.    3039.04  E(vib)   ...       0.00
freq.    3050.82  E(vib)   ...       0.00
freq.    3065.84  E(vib)   ...       0.00
freq.    3067.82  E(vib)   ...       0.00
freq.    3084.99  E(vib)   ...       0.00
freq.    3094.00  E(vib)   ...       0.00
freq.    3094.39  E(vib)   ...       0.00
freq.    3101.53  E(vib)   ...       0.00
freq.    3102.27  E(vib)   ...       0.00
freq.    3132.12  E(vib)   ...       0.00
freq.    3137.23  E(vib)   ...       0.00
freq.    3144.37  E(vib)   ...       0.00
freq.    3166.93  E(vib)   ...       0.00
freq.    3172.42  E(vib)   ...       0.00
freq.    3192.50  E(vib)   ...       0.00
freq.    3194.39  E(vib)   ...       0.00

------------
INNER ENERGY
------------

The inner energy is: U= E(el) + E(ZPE) + E(vib) + E(rot) + E(trans)
    E(el)   - is the total energy from the electronic structure calculation
              = E(kin-el) + E(nuc-el) + E(el-el) + E(nuc-nuc)
    E(ZPE)  - the the zero temperature vibrational energy from the frequency calculation
    E(vib)  - the the finite temperature correction to E(ZPE) due to population
              of excited vibrational states
    E(rot)  - is the rotational thermal energy
    E(trans)- is the translational thermal energy

Summary of contributions to the inner energy U:
Electronic energy                ...   -688.62138827 Eh
Zero point energy                ...      0.27793675 Eh     174.41 kcal/mol
Thermal vibrational correction   ...      0.01401801 Eh       8.80 kcal/mol
Thermal rotational correction    ...      0.00141627 Eh       0.89 kcal/mol
Thermal translational correction ...      0.00141627 Eh       0.89 kcal/mol
-----------------------------------------------------------------------
Total thermal energy                   -688.32660095 Eh

Summary of corrections to the electronic energy:
(perhaps to be used in another calculation)
Total thermal correction                  0.01685056 Eh      10.57 kcal/mol
Non-thermal (ZPE) correction              0.27793675 Eh     174.41 kcal/mol
-----------------------------------------------------------------------
Total correction                          0.29478731 Eh     184.98 kcal/mol

--------
ENTHALPY
--------

The enthalpy is H = U + kB*T
                kB is Boltzmann's constant
Total free energy                 ...   -688.32660095 Eh
Thermal Enthalpy correction       ...      0.00094421 Eh       0.59 kcal/mol
-----------------------------------------------------------------------
Total Enthalpy                    ...   -688.32565674 Eh

Note: Only C1 symmetry has been detected, increase convergence thresholds
      if your molecule has a higher symmetry. Symmetry factor of 1.0 is
      used for the rotational entropy correction.

Note: Rotational entropy computed according to Herzberg
Infrared and Raman Spectra, Chapter V,1, Van Nostrand Reinhold, 1945
Point Group:  C1, Symmetry Number:   1
Rotational constants in cm-1:     0.023807     0.020098     0.013575

                             ****ORCA TERMINATED NORMALLY****
TOTAL RUN TIME: 0 days 0 hours 21 minutes 58 seconds 949 msec
