                         Program Version 5.0.4 -  RELEASE  -
|  1> ! OPT FREQ B3LYP 6-31G(d) D4 AUTOAUX
|  2> ! CPCM
|  3>
|  4> %cpcm
|  5> epsilon 9.8629
|  6> refrac  1.4295
|  7> end
|  8>
|  9> %PAL NPROCS 4 END
| 10>
| 11> %maxcore 3375
| 12>
| 13> *xyzfile 0 1 /users/fjb15167/WWenergy/structures/Nn.xyz
| 14>
| 15>                          ****END OF INPUT****
 Total Charge           Charge          ....    0
 Multiplicity           Mult            ....    1
 Number of Electrons    NEL             ....  108
Dispersion correction           -0.046699167
FINAL SINGLE POINT ENERGY      -703.493190205327
Dispersion correction            ... Starting D4
Dispersion correction           -0.046488066
FINAL SINGLE POINT ENERGY      -703.501338629575
Dispersion correction            ... Starting D4
Dispersion correction           -0.046506869
FINAL SINGLE POINT ENERGY      -703.501882809210
Dispersion correction            ... Starting D4
FINAL SINGLE POINT ENERGY      -703.502080582783
FINAL SINGLE POINT ENERGY      -703.502180299122
FINAL SINGLE POINT ENERGY      -703.502254890841
FINAL SINGLE POINT ENERGY      -703.502348951656
FINAL SINGLE POINT ENERGY      -703.502389836964
FINAL SINGLE POINT ENERGY      -703.502427294962
FINAL SINGLE POINT ENERGY      -703.502467914088
FINAL SINGLE POINT ENERGY      -703.502472477560
FINAL SINGLE POINT ENERGY      -703.502469375497
FINAL SINGLE POINT ENERGY      -703.502480616982
FINAL SINGLE POINT ENERGY      -703.502482812446
Dispersion correction           -0.046377285
FINAL SINGLE POINT ENERGY      -703.502483866235
Dispersion correction            ... Starting D4
Dispersion correction           -0.046374577
FINAL SINGLE POINT ENERGY      -703.502484418962
Dispersion correction            ... Starting D4
                    ***********************HURRAY********************

CARTESIAN COORDINATES (ANGSTROEM)
---------------------------------
  C      1.436708   -1.657857   -0.823629
  H      2.641721   -0.721473   -2.369250
  H      3.175909   -2.332844   -1.840012
  H      3.470135   -0.904526   -0.811738
  O      0.957294   -2.795101   -0.793365
  C      2.766113   -1.380012   -1.501531
  N      0.792673   -0.597877   -0.245177
  C     -0.443956   -0.836310    0.469263
  H     -0.499823   -1.903741    0.691791
  H     -0.423439   -0.292014    1.420446
  C      1.301211    0.755693   -0.233562
  H      1.918091    0.942314   -1.116525
  H      0.459054    1.450974   -0.296045
  C      2.157067    1.040217    1.012027
  O      2.721993    0.139257    1.630229
  N      2.254266    2.348851    1.339290
  H      1.793027    3.073442    0.806096
  H      2.875106    2.629807    2.087577
  C     -1.663517   -0.403664   -0.364873
  O     -1.510371    0.063112   -1.497693
  N     -2.886123   -0.563589    0.210279
  C     -3.108182   -1.044016    1.568788
  H     -2.234996   -1.566275    1.956759
  H     -3.353380   -0.213251    2.244618
  H     -3.949892   -1.745880    1.568029
  C     -4.078954   -0.103221   -0.490733
  H     -4.810441   -0.917203   -0.558027
  H     -4.540265    0.734885    0.048259
  H     -3.796029    0.220305   -1.491293

 Multiplicity           Mult            ....    1
 Number of Electrons    NEL             ....  108
 Basis Dimension        Dim             ....  226

ORBITAL ENERGIES
----------------

  NO   OCC          E(Eh)            E(eV)
   0   2.0000     -19.113100      -520.0939
   1   2.0000     -19.106514      -519.9147
   2   2.0000     -19.104138      -519.8500
   3   2.0000     -14.357973      -390.7003
   4   2.0000     -14.356166      -390.6511
   5   2.0000     -14.346071      -390.3764
   6   2.0000     -10.287036      -279.9245
   7   2.0000     -10.279528      -279.7202
   8   2.0000     -10.279388      -279.7164
   9   2.0000     -10.218619      -278.0628
  10   2.0000     -10.213070      -277.9118
  11   2.0000     -10.204821      -277.6873
  12   2.0000     -10.196469      -277.4600
  13   2.0000     -10.169763      -276.7333
  14   2.0000      -1.035489       -28.1771
  15   2.0000      -1.029088       -28.0029
  16   2.0000      -1.021862       -27.8063
  17   2.0000      -0.932340       -25.3703
  18   2.0000      -0.928111       -25.2552
  19   2.0000      -0.902507       -24.5585
  20   2.0000      -0.761362       -20.7177
  21   2.0000      -0.734224       -19.9793
  22   2.0000      -0.718243       -19.5444
  23   2.0000      -0.704268       -19.1641
  24   2.0000      -0.667605       -18.1665
  25   2.0000      -0.599930       -16.3249
  26   2.0000      -0.559231       -15.2174
  27   2.0000      -0.541899       -14.7458
  28   2.0000      -0.519498       -14.1363
  29   2.0000      -0.506566       -13.7844
  30   2.0000      -0.494419       -13.4538
  31   2.0000      -0.480186       -13.0665
  32   2.0000      -0.468867       -12.7585
  33   2.0000      -0.467615       -12.7244
  34   2.0000      -0.453901       -12.3513
  35   2.0000      -0.434811       -11.8318
  36   2.0000      -0.425800       -11.5866
  37   2.0000      -0.416188       -11.3251
  38   2.0000      -0.407121       -11.0783
  39   2.0000      -0.399183       -10.8623
  40   2.0000      -0.396750       -10.7961
  41   2.0000      -0.394974       -10.7478
  42   2.0000      -0.389490       -10.5986
  43   2.0000      -0.385671       -10.4946
  44   2.0000      -0.375861       -10.2277
  45   2.0000      -0.364068        -9.9068
  46   2.0000      -0.352582        -9.5942
  47   2.0000      -0.347204        -9.4479
  48   2.0000      -0.268823        -7.3150
  49   2.0000      -0.261547        -7.1171
  50   2.0000      -0.254075        -6.9137
  51   2.0000      -0.247792        -6.7428
  52   2.0000      -0.237415        -6.4604
  53   2.0000      -0.234798        -6.3892
  54   0.0000       0.023198         0.6313
  55   0.0000       0.030091         0.8188
  56   0.0000       0.033723         0.9176
  57   0.0000       0.089936         2.4473
  58   0.0000       0.101077         2.7504

MULLIKEN ATOMIC CHARGES
-----------------------
   0 C :    0.520348
   1 H :    0.192289
   2 H :    0.180158
   3 H :    0.188249
   4 O :   -0.530262
   5 C :   -0.564673
   6 N :   -0.333423
   7 C :   -0.279229
   8 H :    0.211971
   9 H :    0.195263
  10 C :   -0.276133
  11 H :    0.214824
  12 H :    0.195254
  13 C :    0.547505
  14 O :   -0.520244
  15 N :   -0.738230
  16 H :    0.379353
  17 H :    0.370904
  18 C :    0.540732
  19 O :   -0.531621
  20 N :   -0.372117
  21 C :   -0.334592
  22 H :    0.194735
  23 H :    0.174065
  24 H :    0.178031
  25 C :   -0.330155
  26 H :    0.170750
  27 H :    0.168526
  28 H :    0.187722
Sum of atomic charges:    0.0000000

LOEWDIN ATOMIC CHARGES
----------------------
   0 C :    0.118269
   1 H :    0.154466
   2 H :    0.149757
   3 H :    0.152597
   4 O :   -0.332629
   5 C :   -0.396747
   6 N :   -0.049195
   7 C :   -0.193749
   8 H :    0.165638
   9 H :    0.152297
  10 C :   -0.190478
  11 H :    0.166529
  12 H :    0.154208
  13 C :    0.095177
  14 O :   -0.323174
  15 N :   -0.348664
  16 H :    0.276837
  17 H :    0.273877
  18 C :    0.102263
  19 O :   -0.331467
  20 N :   -0.077368
  21 C :   -0.276511
  22 H :    0.148559
  23 H :    0.133258
  24 H :    0.139721
  25 C :   -0.278734
  26 H :    0.134348
  27 H :    0.131926
  28 H :    0.148990

  Mayer bond orders larger than 0.100000
B(  0-C ,  4-O ) :   1.8048 B(  0-C ,  5-C ) :   0.9904 B(  0-C ,  6-N ) :   1.1512
B(  1-H ,  5-C ) :   0.9218 B(  2-H ,  5-C ) :   0.9402 B(  3-H ,  5-C ) :   0.9186
B(  6-N ,  7-C ) :   0.9648 B(  6-N , 10-C ) :   0.9775 B(  7-C ,  8-H ) :   0.8887
B(  7-C ,  9-H ) :   0.9099 B(  7-C , 18-C ) :   0.9190 B( 10-C , 11-H ) :   0.9031
B( 10-C , 12-H ) :   0.9116 B( 10-C , 13-C ) :   0.9013 B( 13-C , 14-O ) :   1.8438
B( 13-C , 15-N ) :   1.1783 B( 15-N , 16-H ) :   0.8105 B( 15-N , 17-H ) :   0.8132
B( 18-C , 19-O ) :   1.7860 B( 18-C , 20-N ) :   1.1758 B( 20-N , 21-C ) :   0.9559
B( 20-N , 25-C ) :   0.9483 B( 21-C , 22-H ) :   0.9253 B( 21-C , 23-H ) :   0.9309
B( 21-C , 24-H ) :   0.9339 B( 25-C , 26-H ) :   0.9376 B( 25-C , 27-H ) :   0.9373
B( 25-C , 28-H ) :   0.9247

Dispersion correction           -0.046372772
FINAL SINGLE POINT ENERGY      -703.502485983472

DIPOLE MOMENT
-------------
                                X             Y             Z
Electronic contribution:      6.50918      -0.51989      -0.57046
Nuclear contribution   :     -7.49482       3.43466       1.79427
                        -----------------------------------------
Total Dipole Moment    :     -0.98563       2.91477       1.22381
                        -----------------------------------------
Magnitude (a.u.)       :      3.31136
Magnitude (Debye)      :      8.41680

Dispersion correction in the Hessian             ... Starting D4

VIBRATIONAL FREQUENCIES
-----------------------

Scaling factor for frequencies =  1.000000000  (already applied!)

   0:         0.00 cm**-1
   1:         0.00 cm**-1
   2:         0.00 cm**-1
   3:         0.00 cm**-1
   4:         0.00 cm**-1
   5:         0.00 cm**-1
   6:         9.69 cm**-1
   7:        29.22 cm**-1
   8:        38.65 cm**-1
   9:        54.26 cm**-1
  10:        63.49 cm**-1
  11:        71.43 cm**-1
  12:        95.90 cm**-1
  13:       105.61 cm**-1
  14:       136.48 cm**-1
  15:       193.17 cm**-1
  16:       201.11 cm**-1
  17:       202.17 cm**-1
  18:       228.95 cm**-1
  19:       247.14 cm**-1
  20:       305.47 cm**-1
  21:       356.00 cm**-1
  22:       393.56 cm**-1
  23:       409.18 cm**-1
  24:       422.28 cm**-1
  25:       444.58 cm**-1
  26:       493.51 cm**-1
  27:       534.58 cm**-1
  28:       559.49 cm**-1
  29:       587.69 cm**-1
  30:       592.89 cm**-1
  31:       622.72 cm**-1
  32:       644.60 cm**-1
  33:       703.77 cm**-1
  34:       806.15 cm**-1
  35:       826.92 cm**-1
  36:       853.26 cm**-1
  37:       965.76 cm**-1
  38:       980.12 cm**-1
  39:       996.48 cm**-1
  40:      1015.73 cm**-1
  41:      1061.61 cm**-1
  42:      1088.09 cm**-1
  43:      1106.58 cm**-1
  44:      1123.91 cm**-1
  45:      1134.23 cm**-1
  46:      1166.73 cm**-1
  47:      1183.20 cm**-1
  48:      1239.71 cm**-1
  49:      1273.04 cm**-1
  50:      1288.77 cm**-1
  51:      1324.14 cm**-1
  52:      1351.23 cm**-1
  53:      1383.65 cm**-1
  54:      1406.26 cm**-1
  55:      1425.12 cm**-1
  56:      1443.37 cm**-1
  57:      1454.54 cm**-1
  58:      1468.30 cm**-1
  59:      1483.65 cm**-1
  60:      1489.75 cm**-1
  61:      1493.65 cm**-1
  62:      1504.58 cm**-1
  63:      1505.31 cm**-1
  64:      1513.50 cm**-1
  65:      1519.08 cm**-1
  66:      1521.17 cm**-1
  67:      1556.24 cm**-1
  68:      1639.39 cm**-1
  69:      1721.60 cm**-1
  70:      1730.77 cm**-1
  71:      1765.08 cm**-1
  72:      3036.12 cm**-1
  73:      3041.92 cm**-1
  74:      3063.35 cm**-1
  75:      3069.23 cm**-1
  76:      3092.76 cm**-1
  77:      3095.51 cm**-1
  78:      3096.71 cm**-1
  79:      3131.47 cm**-1
  80:      3139.48 cm**-1
  81:      3145.01 cm**-1
  82:      3172.47 cm**-1
  83:      3189.34 cm**-1
  84:      3192.25 cm**-1
  85:      3575.31 cm**-1
  86:      3696.18 cm**-1

IR SPECTRUM
-----------

 Mode   freq       eps      Int      T**2         TX        TY        TZ
       cm**-1   L/(mol*cm) km/mol    a.u.
----------------------------------------------------------------------------
  6:      9.69   0.000521    2.63  0.016783  ( 0.010024 -0.080965 -0.100634)
  7:     29.22   0.001472    7.44  0.015719  ( 0.043765 -0.084558 -0.081568)
  8:     38.65   0.003020   15.26  0.024381  (-0.146684 -0.040981  0.034428)
  9:     54.26   0.001563    7.90  0.008988  (-0.077403  0.041900  0.035237)
 10:     63.49   0.001022    5.16  0.005022  ( 0.054394  0.022887  0.039241)
 11:     71.43   0.000307    1.55  0.001342  ( 0.017150 -0.030221 -0.011587)
 12:     95.90   0.002101   10.62  0.006838  (-0.033696 -0.000747 -0.075510)
 13:    105.61   0.000367    1.85  0.001084  (-0.020552 -0.017513  0.018837)
 14:    136.48   0.000949    4.80  0.002171  (-0.038047 -0.025734 -0.007815)
 15:    193.17   0.005211   26.33  0.008418  ( 0.043529 -0.034653 -0.072953)
 16:    201.11   0.033092  167.23  0.051349  ( 0.172980 -0.002416 -0.146361)
 17:    202.17   0.028884  145.97  0.044585  (-0.170680 -0.005796  0.124174)
 18:    228.95   0.001465    7.40  0.001996  ( 0.012493  0.041608  0.010433)
 19:    247.14   0.000209    1.05  0.000263  ( 0.006477 -0.007302 -0.012968)
 20:    305.47   0.002823   14.27  0.002884  (-0.045383  0.028119  0.005810)
 21:    356.00   0.001231    6.22  0.001079  ( 0.025902 -0.013544 -0.014999)
 22:    393.56   0.003082   15.58  0.002444  (-0.045363 -0.008196 -0.017862)
 23:    409.18   0.001112    5.62  0.000848  (-0.019824  0.013555  0.016472)
 24:    422.28   0.001427    7.21  0.001055  (-0.030331  0.009485  0.006704)
 25:    444.58   0.000637    3.22  0.000447  (-0.013581 -0.000922 -0.016184)
 26:    493.51   0.000231    1.17  0.000146  (-0.009374  0.001344 -0.007510)
 27:    534.58   0.007565   38.23  0.004416  ( 0.058749  0.003388 -0.030869)
 28:    559.49   0.005267   26.62  0.002938  (-0.026163 -0.045770 -0.012586)
 29:    587.69   0.003457   17.47  0.001836  ( 0.006610 -0.018242 -0.038203)
 30:    592.89   0.002977   15.04  0.001567  ( 0.004273  0.033528  0.020604)
 31:    622.72   0.001212    6.12  0.000607  ( 0.024332 -0.003089  0.002371)
 32:    644.60   0.002003   10.12  0.000970  ( 0.001320 -0.008220  0.030004)
 33:    703.77   0.001544    7.80  0.000685  (-0.021002  0.007536 -0.013664)
 34:    806.15   0.002510   12.68  0.000972  (-0.007291  0.008315 -0.029142)
 35:    826.92   0.000988    5.00  0.000373  (-0.005394  0.005606  0.017678)
 36:    853.26   0.001566    7.91  0.000573  ( 0.009657 -0.013073  0.017568)
 37:    965.76   0.000307    1.55  0.000099  (-0.001539  0.006826  0.007092)
 38:    980.12   0.002202   11.13  0.000701  (-0.005372 -0.025634  0.003887)
 39:    996.48   0.012374   62.53  0.003875  (-0.045258  0.022125  0.036569)
 40:   1015.73   0.008582   43.37  0.002637  ( 0.002256 -0.049563 -0.013230)
 41:   1061.61   0.002568   12.98  0.000755  ( 0.014763  0.005050  0.022615)
 42:   1088.09   0.001824    9.22  0.000523  ( 0.000318  0.005509 -0.022196)
 43:   1106.58   0.001916    9.68  0.000540  ( 0.022621 -0.000400 -0.005328)
 44:   1123.91   0.001103    5.57  0.000306  ( 0.016332 -0.005629 -0.002793)
 45:   1134.23   0.000446    2.25  0.000123  ( 0.002491  0.002706 -0.010444)
 46:   1166.73   0.044372  224.24  0.011868  (-0.103314 -0.003994  0.034325)
 47:   1183.20   0.001054    5.33  0.000278  ( 0.014086 -0.008871  0.000955)
 48:   1239.71   0.002450   12.38  0.000617  (-0.021426 -0.008010  0.009665)
 49:   1273.04   0.047029  237.67  0.011528  ( 0.058694 -0.078909 -0.043088)
 50:   1288.77   0.011077   55.98  0.002682  (-0.040640 -0.015483 -0.028122)
 51:   1324.14   0.017013   85.98  0.004010  (-0.004638 -0.055888 -0.029402)
 52:   1351.23   0.017421   88.04  0.004023  (-0.055690 -0.030279  0.002270)
 53:   1383.65   0.007238   36.58  0.001632  (-0.029858  0.004816  0.026790)
 54:   1406.26   0.003648   18.44  0.000810  (-0.025448 -0.006944  0.010670)
 55:   1425.12   0.012421   62.77  0.002720  ( 0.028742  0.028742  0.032674)
 56:   1443.37   0.011383   57.53  0.002461  ( 0.039084  0.005072 -0.030130)
 57:   1454.54   0.018711   94.56  0.004014  ( 0.057046 -0.027569  0.000398)
 58:   1468.30   0.013372   67.58  0.002842  (-0.012240 -0.051877 -0.000984)
 59:   1483.65   0.014723   74.40  0.003097  (-0.032701  0.005573  0.044680)
 60:   1489.75   0.023625  119.39  0.004949  ( 0.032673 -0.041661 -0.046321)
 61:   1493.65   0.005120   25.87  0.001070  ( 0.018035 -0.025431  0.009881)
 62:   1504.58   0.004296   21.71  0.000891  ( 0.018349 -0.014651  0.018431)
 63:   1505.31   0.001998   10.10  0.000414  ( 0.012238  0.005579  0.015275)
 64:   1513.50   0.003659   18.49  0.000755  (-0.016575 -0.018521 -0.011694)
 65:   1519.08   0.010802   54.59  0.002219  (-0.031465  0.025414  0.024148)
 66:   1521.17   0.005090   25.72  0.001044  (-0.016838  0.027540  0.001473)
 67:   1556.24   0.015915   80.43  0.003191  ( 0.055689 -0.006841 -0.006575)
 68:   1639.39   0.031192  157.63  0.005938  ( 0.021497  0.067955  0.029283)
 69:   1721.60   0.125977  636.63  0.022835  ( 0.067779  0.110999 -0.076943)
 70:   1730.77   0.074202  374.99  0.013379  (-0.025396  0.072148  0.086767)
 71:   1765.08   0.108338  547.50  0.019154  ( 0.042954 -0.127968  0.030545)
 72:   3036.12   0.007240   36.59  0.000744  (-0.005137  0.003247 -0.026594)
 73:   3041.92   0.019717   99.64  0.002023  ( 0.039071 -0.011104 -0.019311)
 74:   3063.35   0.000678    3.43  0.000069  ( 0.004690  0.003817 -0.005700)
 75:   3069.23   0.005396   27.27  0.000549  (-0.013938  0.004925  0.018170)
 76:   3092.76   0.015009   75.85  0.001514  (-0.014210 -0.034798 -0.010078)
 77:   3095.51   0.004388   22.17  0.000442  ( 0.000225 -0.021028  0.000325)
 78:   3096.71   0.001127    5.70  0.000114  ( 0.007133  0.007849 -0.001056)
 79:   3131.47   0.001236    6.24  0.000123  ( 0.007252 -0.003852  0.007463)
 80:   3139.48   0.001278    6.46  0.000127  (-0.010337  0.003624  0.002663)
 81:   3145.01   0.001963    9.92  0.000195  (-0.013610  0.002307  0.002062)
 82:   3172.47   0.002735   13.82  0.000269  (-0.004159  0.014758  0.005826)
 83:   3189.34   0.002359   11.92  0.000231  (-0.013434  0.006415 -0.003030)
 84:   3192.25   0.001156    5.84  0.000113  (-0.004388  0.004483 -0.008584)
 85:   3575.31   0.017191   86.88  0.001500  (-0.005606 -0.037300 -0.008818)
 86:   3696.18   0.015591   78.79  0.001316  (-0.022316  0.011082 -0.026372)

--------------------------
THERMOCHEMISTRY AT 298.15K
--------------------------

Temperature         ... 298.15 K
Pressure            ... 1.00 atm
Total Mass          ... 201.23 AMU

Throughout the following assumptions are being made:
  (1) The electronic state is orbitally nondegenerate
  (2) There are no thermally accessible electronically excited states
  (3) Hindered rotations indicated by low frequency modes are not
      treated as such but are treated as vibrations and this may
      cause some error
  (4) All equations used are the standard statistical mechanics
      equations for an ideal gas
  (5) All vibrations are strictly harmonic

freq.       9.69  E(vib)   ...       0.58
freq.      29.22  E(vib)   ...       0.55
freq.      38.65  E(vib)   ...       0.54
freq.      54.26  E(vib)   ...       0.52
freq.      63.49  E(vib)   ...       0.51
freq.      71.43  E(vib)   ...       0.50
freq.      95.90  E(vib)   ...       0.47
freq.     105.61  E(vib)   ...       0.45
freq.     136.48  E(vib)   ...       0.42
freq.     193.17  E(vib)   ...       0.36
freq.     201.11  E(vib)   ...       0.35
freq.     202.17  E(vib)   ...       0.35
freq.     228.95  E(vib)   ...       0.32
freq.     247.14  E(vib)   ...       0.31
freq.     305.47  E(vib)   ...       0.26
freq.     356.00  E(vib)   ...       0.22
freq.     393.56  E(vib)   ...       0.20
freq.     409.18  E(vib)   ...       0.19
freq.     422.28  E(vib)   ...       0.18
freq.     444.58  E(vib)   ...       0.17
freq.     493.51  E(vib)   ...       0.14
freq.     534.58  E(vib)   ...       0.13
freq.     559.49  E(vib)   ...       0.12
freq.     587.69  E(vib)   ...       0.10
freq.     592.89  E(vib)   ...       0.10
freq.     622.72  E(vib)   ...       0.09
freq.     644.60  E(vib)   ...       0.09
freq.     703.77  E(vib)   ...       0.07
freq.     806.15  E(vib)   ...       0.05
freq.     826.92  E(vib)   ...       0.04
freq.     853.26  E(vib)   ...       0.04
freq.     965.76  E(vib)   ...       0.03
freq.     980.12  E(vib)   ...       0.02
freq.     996.48  E(vib)   ...       0.02
freq.    1015.73  E(vib)   ...       0.02
freq.    1061.61  E(vib)   ...       0.02
freq.    1088.09  E(vib)   ...       0.02
freq.    1106.58  E(vib)   ...       0.02
freq.    1123.91  E(vib)   ...       0.01
freq.    1134.23  E(vib)   ...       0.01
freq.    1166.73  E(vib)   ...       0.01
freq.    1183.20  E(vib)   ...       0.01
freq.    1239.71  E(vib)   ...       0.01
freq.    1273.04  E(vib)   ...       0.01
freq.    1288.77  E(vib)   ...       0.01
freq.    1324.14  E(vib)   ...       0.01
freq.    1351.23  E(vib)   ...       0.01
freq.    1383.65  E(vib)   ...       0.00
freq.    1406.26  E(vib)   ...       0.00
freq.    1425.12  E(vib)   ...       0.00
freq.    1443.37  E(vib)   ...       0.00
freq.    1454.54  E(vib)   ...       0.00
freq.    1468.30  E(vib)   ...       0.00
freq.    1483.65  E(vib)   ...       0.00
freq.    1489.75  E(vib)   ...       0.00
freq.    1493.65  E(vib)   ...       0.00
freq.    1504.58  E(vib)   ...       0.00
freq.    1505.31  E(vib)   ...       0.00
freq.    1513.50  E(vib)   ...       0.00
freq.    1519.08  E(vib)   ...       0.00
freq.    1521.17  E(vib)   ...       0.00
freq.    1556.24  E(vib)   ...       0.00
freq.    1639.39  E(vib)   ...       0.00
freq.    1721.60  E(vib)   ...       0.00
freq.    1730.77  E(vib)   ...       0.00
freq.    1765.08  E(vib)   ...       0.00
freq.    3036.12  E(vib)   ...       0.00
freq.    3041.92  E(vib)   ...       0.00
freq.    3063.35  E(vib)   ...       0.00
freq.    3069.23  E(vib)   ...       0.00
freq.    3092.76  E(vib)   ...       0.00
freq.    3095.51  E(vib)   ...       0.00
freq.    3096.71  E(vib)   ...       0.00
freq.    3131.47  E(vib)   ...       0.00
freq.    3139.48  E(vib)   ...       0.00
freq.    3145.01  E(vib)   ...       0.00
freq.    3172.47  E(vib)   ...       0.00
freq.    3189.34  E(vib)   ...       0.00
freq.    3192.25  E(vib)   ...       0.00
freq.    3575.31  E(vib)   ...       0.00
freq.    3696.18  E(vib)   ...       0.00

------------
INNER ENERGY
------------

The inner energy is: U= E(el) + E(ZPE) + E(vib) + E(rot) + E(trans)
    E(el)   - is the total energy from the electronic structure calculation
              = E(kin-el) + E(nuc-el) + E(el-el) + E(nuc-nuc)
    E(ZPE)  - the the zero temperature vibrational energy from the frequency calculation
    E(vib)  - the the finite temperature correction to E(ZPE) due to population
              of excited vibrational states
    E(rot)  - is the rotational thermal energy
    E(trans)- is the translational thermal energy

Summary of contributions to the inner energy U:
Electronic energy                ...   -703.50248598 Eh
Zero point energy                ...      0.24215881 Eh     151.96 kcal/mol
Thermal vibrational correction   ...      0.01386843 Eh       8.70 kcal/mol
Thermal rotational correction    ...      0.00141627 Eh       0.89 kcal/mol
Thermal translational correction ...      0.00141627 Eh       0.89 kcal/mol
-----------------------------------------------------------------------
Total thermal energy                   -703.24362620 Eh

Summary of corrections to the electronic energy:
(perhaps to be used in another calculation)
Total thermal correction                  0.01670097 Eh      10.48 kcal/mol
Non-thermal (ZPE) correction              0.24215881 Eh     151.96 kcal/mol
-----------------------------------------------------------------------
Total correction                          0.25885978 Eh     162.44 kcal/mol

--------
ENTHALPY
--------

The enthalpy is H = U + kB*T
                kB is Boltzmann's constant
Total free energy                 ...   -703.24362620 Eh
Thermal Enthalpy correction       ...      0.00094421 Eh       0.59 kcal/mol
-----------------------------------------------------------------------
Total Enthalpy                    ...   -703.24268199 Eh

Note: Only C1 symmetry has been detected, increase convergence thresholds
      if your molecule has a higher symmetry. Symmetry factor of 1.0 is
      used for the rotational entropy correction.

Note: Rotational entropy computed according to Herzberg
Infrared and Raman Spectra, Chapter V,1, Van Nostrand Reinhold, 1945
Point Group:  C1, Symmetry Number:   1
Rotational constants in cm-1:     0.031093     0.013927     0.011602

Vibrational entropy computed according to the QRRHO of S. Grimme
Chem.Eur.J. 2012 18 9955

-------
ENTROPY
-------

The entropy contributions are T*S = T*(S(el)+S(vib)+S(rot)+S(trans))

                             ****ORCA TERMINATED NORMALLY****
TOTAL RUN TIME: 0 days 0 hours 27 minutes 12 seconds 981 msec
