                         Program Version 5.0.4 -  RELEASE  -
|  1> ! OPT FREQ B3LYP 6-31+G(d) D4 AUTOAUX
|  2> ! CPCM
|  3>
|  4> %cpcm
|  5> epsilon 9.8629
|  6> refrac  1.4295
|  7> end
|  8>
|  9> %PAL NPROCS 4 END
| 10>
| 11> %maxcore 3375
| 12>
| 13> *xyzfile 1 1 /users/fjb15167/WWenergy/structures/Nr.xyz
| 14>
| 15>                          ****END OF INPUT****
 Total Charge           Charge          ....    1
 Multiplicity           Mult            ....    1
 Number of Electrons    NEL             ....  132
Dispersion correction           -0.063133750
FINAL SINGLE POINT ENERGY      -818.020404728287
Dispersion correction            ... Starting D4
Dispersion correction           -0.061961639
FINAL SINGLE POINT ENERGY      -818.023719310848
Dispersion correction            ... Starting D4
Dispersion correction           -0.062138687
FINAL SINGLE POINT ENERGY      -818.024822706666
Dispersion correction            ... Starting D4
FINAL SINGLE POINT ENERGY      -818.025177909893
FINAL SINGLE POINT ENERGY      -818.025420123372
FINAL SINGLE POINT ENERGY      -818.025487164944
FINAL SINGLE POINT ENERGY      -818.025569332642
FINAL SINGLE POINT ENERGY      -818.025624069530
FINAL SINGLE POINT ENERGY      -818.025650379074
FINAL SINGLE POINT ENERGY      -818.025677719970
FINAL SINGLE POINT ENERGY      -818.025698331127
FINAL SINGLE POINT ENERGY      -818.025711829542
FINAL SINGLE POINT ENERGY      -818.025723889895
FINAL SINGLE POINT ENERGY      -818.025741125596
FINAL SINGLE POINT ENERGY      -818.025750437710
Dispersion correction           -0.062654937
FINAL SINGLE POINT ENERGY      -818.025757801301
Dispersion correction            ... Starting D4
Dispersion correction           -0.062649522
FINAL SINGLE POINT ENERGY      -818.025761724760
Dispersion correction            ... Starting D4
                    ***********************HURRAY********************

CARTESIAN COORDINATES (ANGSTROEM)
---------------------------------
  C      1.968638    2.182309    0.363596
  H      1.736833    1.911747    1.398226
  H      1.717557    3.231853    0.198744
  H      3.048057    2.057606    0.219085
  C      1.198512    1.353252   -0.644266
  N      1.136700   -0.001045   -0.456709
  C      1.672488   -0.666276    0.734085
  H      1.147272   -0.341429    1.637307
  H      1.481234   -1.738692    0.623367
  C      3.168142   -0.472967    1.037811
  N      4.068592   -0.569408    0.034620
  O      3.497272   -0.228026    2.211370
  O      0.647701    1.894218   -1.617573
  C      3.772231   -1.079101   -1.304203
  H      3.558734   -0.267063   -2.009221
  H      4.646742   -1.632987   -1.658791
  H      2.931422   -1.771611   -1.282820
  C      5.470011   -0.244429    0.299363
  H      6.051504   -1.153200    0.502944
  H      5.888116    0.253474   -0.581137
  H      5.535129    0.420119    1.161190
  C      0.313307   -0.807631   -1.367795
  H      0.260455   -0.283287   -2.323162
  C     -1.095153   -1.087834   -0.827419
  H     -1.597122   -1.759371   -1.537232
  H     -1.031059   -1.618414    0.131810
  C     -1.926988    0.181706   -0.649856
  H     -1.448010    0.847775    0.075270
  H     -2.013307    0.716883   -1.603528
  N     -3.261417   -0.168651   -0.148130
  H     -3.554518   -1.136434   -0.224135
  C     -4.153862    0.711567    0.315547
  N     -3.880598    2.024352    0.305181
  N     -5.317940    0.281129    0.825532
  H     -3.114539    2.397032   -0.240192
  H     -4.550745    2.691953    0.665497
  H     -5.509479   -0.706962    0.932170
  H     -6.048805    0.929976    1.086633
  H      0.820895   -1.762133   -1.535181

 Multiplicity           Mult            ....    1
 Number of Electrons    NEL             ....  132
 Basis Dimension        Dim             ....  350

ORBITAL ENERGIES
----------------

  NO   OCC          E(Eh)            E(eV)
   0   2.0000     -19.133432      -520.6472
   1   2.0000     -19.131983      -520.6077
   2   2.0000     -14.401439      -391.8831
   3   2.0000     -14.396215      -391.7409
   4   2.0000     -14.393728      -391.6732
   5   2.0000     -14.382826      -391.3766
   6   2.0000     -14.381254      -391.3338
   7   2.0000     -10.365255      -282.0529
   8   2.0000     -10.304425      -280.3977
   9   2.0000     -10.302136      -280.3354
  10   2.0000     -10.243155      -278.7304
  11   2.0000     -10.239478      -278.6304
  12   2.0000     -10.228893      -278.3423
  13   2.0000     -10.219353      -278.0827
  14   2.0000     -10.212136      -277.8863
  15   2.0000     -10.204253      -277.6718
  16   2.0000     -10.187435      -277.2142
  17   2.0000      -1.053724       -28.6733
  18   2.0000      -1.053107       -28.6565
  19   2.0000      -1.047977       -28.5169
  20   2.0000      -0.957081       -26.0435
  21   2.0000      -0.947659       -25.7871
  22   2.0000      -0.944449       -25.6998
  23   2.0000      -0.931788       -25.3552
  24   2.0000      -0.811839       -22.0913
  25   2.0000      -0.759925       -20.6786
  26   2.0000      -0.757860       -20.6224
  27   2.0000      -0.729399       -19.8480
  28   2.0000      -0.715006       -19.4563
  29   2.0000      -0.697754       -18.9868
  30   2.0000      -0.672196       -18.2914
  31   2.0000      -0.643635       -17.5142
  32   2.0000      -0.617782       -16.8107
  33   2.0000      -0.590605       -16.0712
  34   2.0000      -0.581022       -15.8104
  35   2.0000      -0.551688       -15.0122
  36   2.0000      -0.530442       -14.4341
  37   2.0000      -0.529347       -14.4043
  38   2.0000      -0.517428       -14.0799
  39   2.0000      -0.513063       -13.9612
  40   2.0000      -0.504910       -13.7393
  41   2.0000      -0.496361       -13.5067
  42   2.0000      -0.487390       -13.2626
  43   2.0000      -0.479371       -13.0443
  44   2.0000      -0.471519       -12.8307
  45   2.0000      -0.464460       -12.6386
  46   2.0000      -0.451696       -12.2913
  47   2.0000      -0.436007       -11.8643
  48   2.0000      -0.427385       -11.6297
  49   2.0000      -0.424116       -11.5408
  50   2.0000      -0.417667       -11.3653
  51   2.0000      -0.414731       -11.2854
  52   2.0000      -0.410688       -11.1754
  53   2.0000      -0.406527       -11.0622
  54   2.0000      -0.399288       -10.8652
  55   2.0000      -0.389140       -10.5890
  56   2.0000      -0.377782       -10.2800
  57   2.0000      -0.373511       -10.1638
  58   2.0000      -0.367822       -10.0089
  59   2.0000      -0.363890        -9.9020
  60   2.0000      -0.315300        -8.5798
  61   2.0000      -0.295556        -8.0425
  62   2.0000      -0.282454        -7.6860
  63   2.0000      -0.273731        -7.4486
  64   2.0000      -0.261339        -7.1114
  65   2.0000      -0.256445        -6.9782
  66   0.0000      -0.016117        -0.4386
  67   0.0000      -0.011704        -0.3185
  68   0.0000      -0.007722        -0.2101
  69   0.0000      -0.003207        -0.0873
  70   0.0000      -0.001972        -0.0537

MULLIKEN ATOMIC CHARGES
-----------------------
   0 C :   -0.877553
   1 H :    0.257135
   2 H :    0.246324
   3 H :    0.274969
   4 C :    0.585709
   5 N :   -0.192812
   6 C :   -0.292027
   7 H :    0.271253
   8 H :    0.279109
   9 C :    0.090923
  10 N :   -0.044264
  11 O :   -0.572779
  12 O :   -0.579160
  13 C :   -0.469908
  14 H :    0.242115
  15 H :    0.236686
  16 H :    0.228916
  17 C :   -0.565901
  18 H :    0.235517
  19 H :    0.228924
  20 H :    0.238788
  21 C :   -0.253785
  22 H :    0.247586
  23 C :   -0.601280
  24 H :    0.236933
  25 H :    0.243267
  26 C :   -0.410342
  27 H :    0.250173
  28 H :    0.252407
  29 N :   -0.536056
  30 H :    0.465535
  31 C :    0.975126
  32 N :   -0.933343
  33 N :   -0.859205
  34 H :    0.460584
  35 H :    0.484345
  36 H :    0.459942
  37 H :    0.465667
  38 H :    0.230479
Sum of atomic charges:    1.0000000

LOEWDIN ATOMIC CHARGES
----------------------
   0 C :   -0.453340
   1 H :    0.230422
   2 H :    0.219603
   3 H :    0.239284
   4 C :    0.100837
   5 N :   -0.340133
   6 C :   -0.230382
   7 H :    0.248172
   8 H :    0.255762
   9 C :    0.086732
  10 N :   -0.325400
  11 O :   -0.459544
  12 O :   -0.458845
  13 C :   -0.342622
  14 H :    0.220836
  15 H :    0.214587
  16 H :    0.223773
  17 C :   -0.350240
  18 H :    0.210248
  19 H :    0.212407
  20 H :    0.229265
  21 C :   -0.248653
  22 H :    0.246356
  23 C :   -0.342659
  24 H :    0.216629
  25 H :    0.221940
  26 C :   -0.233720
  27 H :    0.234381
  28 H :    0.227438
  29 N :   -0.346830
  30 H :    0.365722
  31 C :    0.149954
  32 N :   -0.445028
  33 N :   -0.438558
  34 H :    0.360958
  35 H :    0.360010
  36 H :    0.359081
  37 H :    0.358498
  38 H :    0.223058

  Mayer bond orders larger than 0.100000
B(  0-C ,  1-H ) :   0.9425 B(  0-C ,  2-H ) :   0.9964 B(  0-C ,  3-H ) :   0.9166
B(  0-C ,  4-C ) :   0.5110 B(  0-C ,  5-N ) :  -0.1627 B(  4-C ,  5-N ) :   1.2255
B(  4-C , 12-O ) :   1.8017 B(  5-N ,  6-C ) :   0.8316 B(  5-N , 21-C ) :   0.7647
B(  6-C ,  7-H ) :   0.9611 B(  6-C ,  8-H ) :   0.8688 B(  6-C ,  9-C ) :   0.8794
B(  6-C , 10-N ) :  -0.2730 B(  6-C , 11-O ) :  -0.1573 B(  9-C , 10-N ) :   1.3693
B(  9-C , 11-O ) :   1.8794 B( 10-N , 13-C ) :   0.8143 B( 10-N , 17-C ) :   0.8161
B( 12-O , 21-C ) :  -0.1225 B( 13-C , 14-H ) :   0.9174 B( 13-C , 15-H ) :   0.9309
B( 13-C , 16-H ) :   0.9276 B( 17-C , 18-H ) :   0.9284 B( 17-C , 19-H ) :   0.9419
B( 17-C , 20-H ) :   0.9560 B( 21-C , 22-H ) :   1.0016 B( 21-C , 23-C ) :   0.6347
B( 21-C , 38-H ) :   0.9465 B( 23-C , 24-H ) :   0.9827 B( 23-C , 25-H ) :   1.0649
B( 23-C , 26-C ) :   0.6037 B( 23-C , 29-N ) :  -0.1093 B( 25-H , 26-C ) :  -0.1129
B( 26-C , 27-H ) :   0.9745 B( 26-C , 28-H ) :   0.9152 B( 26-C , 29-N ) :   1.0675
B( 26-C , 31-C ) :  -0.1139 B( 29-N , 30-H ) :   0.7202 B( 29-N , 31-C ) :   1.1310
B( 31-C , 32-N ) :   1.1625 B( 31-C , 33-N ) :   1.1879 B( 32-N , 34-H ) :   0.7416
B( 32-N , 35-H ) :   0.7320 B( 33-N , 36-H ) :   0.7485 B( 33-N , 37-H ) :   0.7420

Dispersion correction           -0.062640798
FINAL SINGLE POINT ENERGY      -818.025762887869

DIPOLE MOMENT
-------------
                                X             Y             Z
Electronic contribution:     -8.47201       2.07999       2.72281
Nuclear contribution   :      0.93345      -3.05802      -3.09996
                        -----------------------------------------
Total Dipole Moment    :     -7.53857      -0.97803      -0.37715
                        -----------------------------------------
Magnitude (a.u.)       :      7.61109
Magnitude (Debye)      :     19.34586

Dispersion correction in the Hessian             ... Starting D4

VIBRATIONAL FREQUENCIES
-----------------------

Scaling factor for frequencies =  1.000000000  (already applied!)

   0:         0.00 cm**-1
   1:         0.00 cm**-1
   2:         0.00 cm**-1
   3:         0.00 cm**-1
   4:         0.00 cm**-1
   5:         0.00 cm**-1
   6:       -74.71 cm**-1 ***imaginary mode***
   7:        25.67 cm**-1
   8:        32.88 cm**-1
   9:        40.09 cm**-1
  10:        57.54 cm**-1
  11:        74.86 cm**-1
  12:        79.08 cm**-1
  13:        85.43 cm**-1
  14:        94.31 cm**-1
  15:       109.29 cm**-1
  16:       132.81 cm**-1
  17:       142.40 cm**-1
  18:       165.33 cm**-1
  19:       176.14 cm**-1
  20:       179.23 cm**-1
  21:       201.59 cm**-1
  22:       239.76 cm**-1
  23:       258.72 cm**-1
  24:       280.74 cm**-1
  25:       291.76 cm**-1
  26:       305.27 cm**-1
  27:       321.53 cm**-1
  28:       336.35 cm**-1
  29:       391.57 cm**-1
  30:       416.41 cm**-1
  31:       442.58 cm**-1
  32:       456.67 cm**-1
  33:       485.17 cm**-1
  34:       507.07 cm**-1
  35:       551.45 cm**-1
  36:       569.26 cm**-1
  37:       579.19 cm**-1
  38:       599.72 cm**-1
  39:       605.82 cm**-1
  40:       621.65 cm**-1
  41:       675.61 cm**-1
  42:       713.48 cm**-1
  43:       738.98 cm**-1
  44:       794.92 cm**-1
  45:       816.03 cm**-1
  46:       894.72 cm**-1
  47:       931.73 cm**-1
  48:       979.03 cm**-1
  49:       993.86 cm**-1
  50:      1004.47 cm**-1
  51:      1036.47 cm**-1
  52:      1061.39 cm**-1
  53:      1068.30 cm**-1
  54:      1083.96 cm**-1
  55:      1086.77 cm**-1
  56:      1099.41 cm**-1
  57:      1120.79 cm**-1
  58:      1130.05 cm**-1
  59:      1142.65 cm**-1
  60:      1165.72 cm**-1
  61:      1184.92 cm**-1
  62:      1192.91 cm**-1
  63:      1205.30 cm**-1
  64:      1263.11 cm**-1
  65:      1286.48 cm**-1
  66:      1293.82 cm**-1
  67:      1313.94 cm**-1
  68:      1343.62 cm**-1
  69:      1357.06 cm**-1
  70:      1377.56 cm**-1
  71:      1409.28 cm**-1
  72:      1410.37 cm**-1
  73:      1423.93 cm**-1
  74:      1441.27 cm**-1
  75:      1455.63 cm**-1
  76:      1459.35 cm**-1
  77:      1476.64 cm**-1
  78:      1480.86 cm**-1
  79:      1485.98 cm**-1
  80:      1489.03 cm**-1
  81:      1494.47 cm**-1
  82:      1498.91 cm**-1
  83:      1501.90 cm**-1
  84:      1509.26 cm**-1
  85:      1511.76 cm**-1
  86:      1524.21 cm**-1
  87:      1527.07 cm**-1
  88:      1544.09 cm**-1
  89:      1614.40 cm**-1
  90:      1657.89 cm**-1
  91:      1667.39 cm**-1
  92:      1671.44 cm**-1
  93:      1685.99 cm**-1
  94:      1701.80 cm**-1
  95:      3042.84 cm**-1
  96:      3043.92 cm**-1
  97:      3056.51 cm**-1
  98:      3057.46 cm**-1
  99:      3066.66 cm**-1
 100:      3077.99 cm**-1
 101:      3080.94 cm**-1
 102:      3091.30 cm**-1
 103:      3110.72 cm**-1
 104:      3111.49 cm**-1
 105:      3120.48 cm**-1
 106:      3123.65 cm**-1
 107:      3132.65 cm**-1
 108:      3153.27 cm**-1
 109:      3163.44 cm**-1
 110:      3175.67 cm**-1
 111:      3178.55 cm**-1
 112:      3587.50 cm**-1
 113:      3589.01 cm**-1
 114:      3597.67 cm**-1
 115:      3698.39 cm**-1
 116:      3703.04 cm**-1

IR SPECTRUM
-----------

 Mode   freq       eps      Int      T**2         TX        TY        TZ
       cm**-1   L/(mol*cm) km/mol    a.u.
----------------------------------------------------------------------------
  7:     25.67   0.002133   10.78  0.025926  (-0.081761  0.004537 -0.138637)
  8:     32.88   0.000602    3.04  0.005717  (-0.010744  0.053652 -0.052178)
  9:     40.09   0.001436    7.26  0.011177  ( 0.051795  0.090110  0.019349)
 10:     57.54   0.001844    9.32  0.010002  (-0.044097  0.069049 -0.057356)
 11:     74.86   0.001293    6.53  0.005388  ( 0.013854 -0.025337 -0.067486)
 12:     79.08   0.002552   12.89  0.010069  (-0.084414  0.000354  0.054251)
 13:     85.43   0.000325    1.64  0.001186  (-0.007351  0.009927 -0.032145)
 14:     94.31   0.000642    3.24  0.002123  ( 0.035169 -0.026884  0.012777)
 15:    109.29   0.002145   10.84  0.006125  ( 0.051654  0.003539 -0.058692)
 16:    132.81   0.001881    9.51  0.004421  ( 0.038497  0.039836  0.036767)
 17:    142.40   0.001402    7.08  0.003072  (-0.032885  0.040779 -0.018101)
 18:    165.33   0.002279   11.52  0.004302  ( 0.008840  0.011249 -0.064011)
 19:    176.14   0.000094    0.48  0.000167  ( 0.001818 -0.012283 -0.003598)
 20:    179.23   0.000074    0.37  0.000128  (-0.000408  0.010306  0.004673)
 21:    201.59   0.000148    0.75  0.000229  ( 0.002162  0.010666  0.010524)
 22:    239.76   0.002065   10.43  0.002687  ( 0.015062 -0.042684  0.025263)
 23:    258.72   0.087609  442.74  0.105673  ( 0.161573  0.061748  0.275236)
 24:    280.74   0.000891    4.50  0.000990  (-0.013307  0.025214 -0.013325)
 25:    291.76   0.019264   97.35  0.020604  ( 0.076089 -0.021985  0.119713)
 26:    305.27   0.002586   13.07  0.002643  (-0.039337 -0.013391 -0.030273)
 27:    321.53   0.001898    9.59  0.001842  (-0.029539  0.000114  0.031139)
 28:    336.35   0.000814    4.11  0.000755  ( 0.021613 -0.015234  0.007463)
 29:    391.57   0.002000   10.11  0.001594  (-0.034575  0.005331  0.019245)
 30:    416.41   0.001520    7.68  0.001139  (-0.029451 -0.015735 -0.004898)
 31:    442.58   0.006098   30.82  0.004300  ( 0.051383 -0.014832  0.037939)
 32:    456.67   0.002016   10.19  0.001378  (-0.023269 -0.025321 -0.013964)
 33:    485.17   0.022139  111.88  0.014240  ( 0.055091 -0.031863  0.100944)
 34:    507.07   0.005552   28.06  0.003417  (-0.037911 -0.021755 -0.038808)
 35:    551.45   0.000665    3.36  0.000376  ( 0.013466 -0.013774  0.002326)
 36:    569.26   0.005232   26.44  0.002868  ( 0.001413 -0.021160  0.049174)
 37:    579.19   0.002167   10.95  0.001168  ( 0.004479 -0.025310  0.022519)
 38:    599.72   0.002480   12.53  0.001290  (-0.033093  0.003086  0.013628)
 39:    605.82   0.002631   13.30  0.001356  (-0.016439  0.027556  0.018054)
 40:    621.65   0.002188   11.06  0.001098  (-0.026663  0.018361  0.007098)
 41:    675.61   0.003540   17.89  0.001635  ( 0.029570 -0.021557 -0.017200)
 42:    713.48   0.000376    1.90  0.000164  (-0.002108 -0.003164  0.012248)
 43:    738.98   0.002654   13.41  0.001121  (-0.025419  0.017751  0.012628)
 44:    794.92   0.002897   14.64  0.001137  (-0.006063  0.019508  0.026830)
 45:    816.03   0.000536    2.71  0.000205  ( 0.000388  0.005616  0.013168)
 46:    894.72   0.001673    8.46  0.000584  ( 0.007582 -0.017785  0.014483)
 47:    931.73   0.000296    1.50  0.000099  ( 0.008351  0.005024 -0.002049)
 48:    979.03   0.000489    2.47  0.000156  ( 0.005940  0.006347  0.008962)
 49:    993.86   0.002853   14.42  0.000896  ( 0.016485 -0.019066 -0.016139)
 50:   1004.47   0.007447   37.63  0.002314  ( 0.027553  0.026784 -0.028931)
 51:   1036.47   0.003296   16.66  0.000992  (-0.023341  0.016416 -0.013347)
 52:   1061.39   0.003145   15.89  0.000925  ( 0.029210 -0.001800 -0.008252)
 53:   1068.30   0.005017   25.35  0.001465  (-0.007122  0.034628 -0.014683)
 54:   1083.96   0.003931   19.86  0.001132  (-0.023740 -0.009485 -0.021865)
 55:   1086.77   0.000456    2.30  0.000131  ( 0.005781  0.009803  0.001197)
 56:   1099.41   0.000685    3.46  0.000194  (-0.005584 -0.012776 -0.000040)
 57:   1120.79   0.000772    3.90  0.000215  (-0.012397  0.003744  0.006879)
 58:   1130.05   0.001162    5.87  0.000321  (-0.006138 -0.001917  0.016720)
 59:   1142.65   0.001739    8.79  0.000475  (-0.013074  0.010776 -0.013710)
 60:   1165.72   0.000479    2.42  0.000128  (-0.006593 -0.007894 -0.004740)
 61:   1184.92   0.007376   37.27  0.001943  ( 0.043771  0.003988 -0.003276)
 62:   1192.91   0.015318   77.41  0.004007  ( 0.043694 -0.008802 -0.044950)
 63:   1205.30   0.008910   45.03  0.002307  (-0.034661 -0.008823 -0.032058)
 64:   1263.11   0.012640   63.88  0.003123  ( 0.007557  0.052553  0.017430)
 65:   1286.48   0.006358   32.13  0.001542  (-0.035199  0.017319 -0.001835)
 66:   1293.82   0.012876   65.07  0.003106  ( 0.033807  0.044303 -0.000220)
 67:   1313.94   0.007055   35.65  0.001676  (-0.003667 -0.035945  0.019239)
 68:   1343.62   0.007370   37.24  0.001712  (-0.018460 -0.031699  0.019134)
 69:   1357.06   0.015502   78.34  0.003565  (-0.001608 -0.049061  0.033989)
 70:   1377.56   0.007493   37.87  0.001697  ( 0.025356 -0.021472  0.024360)
 71:   1409.28   0.008183   41.35  0.001812  (-0.032480 -0.024233  0.013028)
 72:   1410.37   0.002564   12.96  0.000567  (-0.018098 -0.005419 -0.014508)
 73:   1423.93   0.003111   15.72  0.000682  ( 0.015481 -0.017723 -0.011318)
 74:   1441.27   0.025473  128.73  0.005515  (-0.054963  0.018579  0.046359)
 75:   1455.63   0.029452  148.84  0.006314  ( 0.025794  0.072644 -0.019277)
 76:   1459.35   0.012058   60.93  0.002578  (-0.012598  0.047728 -0.011906)
 77:   1476.64   0.007753   39.18  0.001638  ( 0.013057  0.038229 -0.002539)
 78:   1480.86   0.003316   16.76  0.000699  ( 0.003815  0.025543 -0.005643)
 79:   1485.98   0.005516   27.88  0.001158  (-0.026915 -0.001586 -0.020772)
 80:   1489.03   0.003269   16.52  0.000685  (-0.001031  0.012975  0.022707)
 81:   1494.47   0.003362   16.99  0.000702  ( 0.004138 -0.021234  0.015300)
 82:   1498.91   0.001241    6.27  0.000258  (-0.016000 -0.001399 -0.000607)
 83:   1501.90   0.010710   54.12  0.002225  ( 0.017193 -0.023181 -0.037313)
 84:   1509.26   0.000627    3.17  0.000130  ( 0.005373 -0.009944 -0.001388)
 85:   1511.76   0.004471   22.59  0.000923  (-0.028022  0.004315 -0.010909)
 86:   1524.21   0.019844  100.28  0.004063  (-0.008715 -0.062368 -0.009853)
 87:   1527.07   0.006864   34.69  0.001403  ( 0.033432  0.016366 -0.004134)
 88:   1544.09   0.019108   96.56  0.003862  ( 0.058327 -0.019786 -0.008259)
 89:   1614.40   0.015136   76.49  0.002926  ( 0.009017 -0.052314 -0.010386)
 90:   1657.89   0.100041  505.57  0.018831  (-0.084953  0.097308  0.046312)
 91:   1667.39   0.191371  967.11  0.035816  (-0.047256  0.088463 -0.160491)
 92:   1671.44   0.104581  528.51  0.019526  ( 0.040874 -0.070570 -0.113467)
 93:   1685.99   0.154728  781.93  0.028639  (-0.145777 -0.058308  0.063151)
 94:   1701.80   0.036138  182.63  0.006627  (-0.015058  0.079763  0.006160)
 95:   3042.84   0.004024   20.33  0.000413  ( 0.007830  0.018695 -0.001361)
 96:   3043.92   0.011434   57.78  0.001172  (-0.032756  0.008041 -0.005880)
 97:   3056.51   0.010794   54.55  0.001102  (-0.007200  0.004615  0.032077)
 98:   3057.46   0.007160   36.19  0.000731  (-0.013731 -0.021000  0.010064)
 99:   3066.66   0.000626    3.16  0.000064  (-0.004124 -0.004803 -0.004861)
100:   3077.99   0.001060    5.35  0.000107  (-0.006438  0.005259  0.006190)
101:   3080.94   0.006303   31.85  0.000638  (-0.001257  0.007621 -0.024057)
102:   3091.30   0.008945   45.20  0.000903  (-0.007466  0.025782  0.013510)
103:   3110.72   0.008905   45.00  0.000893  ( 0.002731 -0.026175  0.014168)
104:   3111.49   0.007373   37.26  0.000739  ( 0.010082  0.007232  0.024197)
105:   3120.48   0.003727   18.83  0.000373  ( 0.014367 -0.012304 -0.003859)
106:   3123.65   0.001467    7.41  0.000147  (-0.004168  0.003193  0.010907)
107:   3132.65   0.001582    7.99  0.000158  ( 0.007383 -0.003250 -0.009616)
108:   3153.27   0.002466   12.46  0.000244  (-0.007993  0.004400 -0.012682)
109:   3163.44   0.002237   11.31  0.000221  (-0.002628  0.013550 -0.005493)
110:   3175.67   0.001256    6.35  0.000123  ( 0.000323  0.006452  0.009039)
111:   3178.55   0.004424   22.36  0.000434  (-0.013844 -0.015577  0.000062)
112:   3587.50   0.049371  249.50  0.004295  ( 0.041311  0.046949 -0.019588)
113:   3589.01   0.041207  208.25  0.003583  (-0.024193  0.053111  0.013301)
114:   3597.67   0.009052   45.74  0.000785  ( 0.021183  0.018338 -0.000371)
115:   3698.39   0.036981  186.89  0.003120  (-0.045684  0.017189  0.027164)
116:   3703.04   0.024306  122.83  0.002048  (-0.009459  0.044259 -0.000098)

--------------------------
THERMOCHEMISTRY AT 298.15K
--------------------------

Temperature         ... 298.15 K
Pressure            ... 1.00 atm
Total Mass          ... 244.32 AMU

Throughout the following assumptions are being made:
  (1) The electronic state is orbitally nondegenerate
  (2) There are no thermally accessible electronically excited states
  (3) Hindered rotations indicated by low frequency modes are not
      treated as such but are treated as vibrations and this may
      cause some error
  (4) All equations used are the standard statistical mechanics
      equations for an ideal gas
  (5) All vibrations are strictly harmonic

freq.      25.67  E(vib)   ...       0.56
freq.      32.88  E(vib)   ...       0.55
freq.      40.09  E(vib)   ...       0.54
freq.      57.54  E(vib)   ...       0.51
freq.      74.86  E(vib)   ...       0.49
freq.      79.08  E(vib)   ...       0.49
freq.      85.43  E(vib)   ...       0.48
freq.      94.31  E(vib)   ...       0.47
freq.     109.29  E(vib)   ...       0.45
freq.     132.81  E(vib)   ...       0.42
freq.     142.40  E(vib)   ...       0.41
freq.     165.33  E(vib)   ...       0.39
freq.     176.14  E(vib)   ...       0.38
freq.     179.23  E(vib)   ...       0.37
freq.     201.59  E(vib)   ...       0.35
freq.     239.76  E(vib)   ...       0.31
freq.     258.72  E(vib)   ...       0.30
freq.     280.74  E(vib)   ...       0.28
freq.     291.76  E(vib)   ...       0.27
freq.     305.27  E(vib)   ...       0.26
freq.     321.53  E(vib)   ...       0.25
freq.     336.35  E(vib)   ...       0.24
freq.     391.57  E(vib)   ...       0.20
freq.     416.41  E(vib)   ...       0.18
freq.     442.58  E(vib)   ...       0.17
freq.     456.67  E(vib)   ...       0.16
freq.     485.17  E(vib)   ...       0.15
freq.     507.07  E(vib)   ...       0.14
freq.     551.45  E(vib)   ...       0.12
freq.     569.26  E(vib)   ...       0.11
freq.     579.19  E(vib)   ...       0.11
freq.     599.72  E(vib)   ...       0.10
freq.     605.82  E(vib)   ...       0.10
freq.     621.65  E(vib)   ...       0.09
freq.     675.61  E(vib)   ...       0.08
freq.     713.48  E(vib)   ...       0.07
freq.     738.98  E(vib)   ...       0.06
freq.     794.92  E(vib)   ...       0.05
freq.     816.03  E(vib)   ...       0.05
freq.     894.72  E(vib)   ...       0.03
freq.     931.73  E(vib)   ...       0.03
freq.     979.03  E(vib)   ...       0.03
freq.     993.86  E(vib)   ...       0.02
freq.    1004.47  E(vib)   ...       0.02
freq.    1036.47  E(vib)   ...       0.02
freq.    1061.39  E(vib)   ...       0.02
freq.    1068.30  E(vib)   ...       0.02
freq.    1083.96  E(vib)   ...       0.02
freq.    1086.77  E(vib)   ...       0.02
freq.    1099.41  E(vib)   ...       0.02
freq.    1120.79  E(vib)   ...       0.01
freq.    1130.05  E(vib)   ...       0.01
freq.    1142.65  E(vib)   ...       0.01
freq.    1165.72  E(vib)   ...       0.01
freq.    1184.92  E(vib)   ...       0.01
freq.    1192.91  E(vib)   ...       0.01
freq.    1205.30  E(vib)   ...       0.01
freq.    1263.11  E(vib)   ...       0.01
freq.    1286.48  E(vib)   ...       0.01
freq.    1293.82  E(vib)   ...       0.01
freq.    1313.94  E(vib)   ...       0.01
freq.    1343.62  E(vib)   ...       0.01
freq.    1357.06  E(vib)   ...       0.01
freq.    1377.56  E(vib)   ...       0.01
freq.    1409.28  E(vib)   ...       0.00
freq.    1410.37  E(vib)   ...       0.00
freq.    1423.93  E(vib)   ...       0.00
freq.    1441.27  E(vib)   ...       0.00
freq.    1455.63  E(vib)   ...       0.00
freq.    1459.35  E(vib)   ...       0.00
freq.    1476.64  E(vib)   ...       0.00
freq.    1480.86  E(vib)   ...       0.00
freq.    1485.98  E(vib)   ...       0.00
freq.    1489.03  E(vib)   ...       0.00
freq.    1494.47  E(vib)   ...       0.00
freq.    1498.91  E(vib)   ...       0.00
freq.    1501.90  E(vib)   ...       0.00
freq.    1509.26  E(vib)   ...       0.00
freq.    1511.76  E(vib)   ...       0.00
freq.    1524.21  E(vib)   ...       0.00
freq.    1527.07  E(vib)   ...       0.00
freq.    1544.09  E(vib)   ...       0.00
freq.    1614.40  E(vib)   ...       0.00
freq.    1657.89  E(vib)   ...       0.00
freq.    1667.39  E(vib)   ...       0.00
freq.    1671.44  E(vib)   ...       0.00
freq.    1685.99  E(vib)   ...       0.00
freq.    1701.80  E(vib)   ...       0.00
freq.    3042.84  E(vib)   ...       0.00
freq.    3043.92  E(vib)   ...       0.00
freq.    3056.51  E(vib)   ...       0.00
freq.    3057.46  E(vib)   ...       0.00
freq.    3066.66  E(vib)   ...       0.00
freq.    3077.99  E(vib)   ...       0.00
freq.    3080.94  E(vib)   ...       0.00
freq.    3091.30  E(vib)   ...       0.00
freq.    3110.72  E(vib)   ...       0.00
freq.    3111.49  E(vib)   ...       0.00
freq.    3120.48  E(vib)   ...       0.00
freq.    3123.65  E(vib)   ...       0.00
freq.    3132.65  E(vib)   ...       0.00
freq.    3153.27  E(vib)   ...       0.00
freq.    3163.44  E(vib)   ...       0.00
freq.    3175.67  E(vib)   ...       0.00
freq.    3178.55  E(vib)   ...       0.00
freq.    3587.50  E(vib)   ...       0.00
freq.    3589.01  E(vib)   ...       0.00
freq.    3597.67  E(vib)   ...       0.00
freq.    3698.39  E(vib)   ...       0.00
freq.    3703.04  E(vib)   ...       0.00

------------
INNER ENERGY
------------

The inner energy is: U= E(el) + E(ZPE) + E(vib) + E(rot) + E(trans)
    E(el)   - is the total energy from the electronic structure calculation
              = E(kin-el) + E(nuc-el) + E(el-el) + E(nuc-nuc)
    E(ZPE)  - the the zero temperature vibrational energy from the frequency calculation
    E(vib)  - the the finite temperature correction to E(ZPE) due to population
              of excited vibrational states
    E(rot)  - is the rotational thermal energy
    E(trans)- is the translational thermal energy

Summary of contributions to the inner energy U:
Electronic energy                ...   -818.02576289 Eh
Zero point energy                ...      0.34131625 Eh     214.18 kcal/mol
Thermal vibrational correction   ...      0.01773795 Eh      11.13 kcal/mol
Thermal rotational correction    ...      0.00141627 Eh       0.89 kcal/mol
Thermal translational correction ...      0.00141627 Eh       0.89 kcal/mol
-----------------------------------------------------------------------
Total thermal energy                   -817.66387614 Eh

Summary of corrections to the electronic energy:
(perhaps to be used in another calculation)
Total thermal correction                  0.02057050 Eh      12.91 kcal/mol
Non-thermal (ZPE) correction              0.34131625 Eh     214.18 kcal/mol
-----------------------------------------------------------------------
Total correction                          0.36188674 Eh     227.09 kcal/mol

--------
ENTHALPY

Rotational constants in cm-1:     0.032550     0.006140     0.006090

                             ****ORCA TERMINATED NORMALLY****
TOTAL RUN TIME: 0 days 1 hours 26 minutes 34 seconds 476 msec
