                         Program Version 5.0.4 -  RELEASE  -
|  1> ! OPT FREQ B3LYP 6-31G(d) D4 AUTOAUX
|  2>
|  3> %PAL NPROCS 4 END
|  4>
|  5> %maxcore 3375
|  6>
|  7> *xyzfile 0 1 /users/fjb15167/WWenergy/structures/Nfn.xyz
|  8>
|  9>                          ****END OF INPUT****
 Total Charge           Charge          ....    0
 Multiplicity           Mult            ....    1
 Number of Electrons    NEL             ....  118
Dispersion correction           -0.060625108
FINAL SINGLE POINT ENERGY      -726.495069182623
Dispersion correction            ... Starting D4
Dispersion correction           -0.060535803
FINAL SINGLE POINT ENERGY      -726.495480773416
Dispersion correction            ... Starting D4
Dispersion correction           -0.060376791
FINAL SINGLE POINT ENERGY      -726.495538284124
Dispersion correction            ... Starting D4
FINAL SINGLE POINT ENERGY      -726.495583098326
FINAL SINGLE POINT ENERGY      -726.495607430475
FINAL SINGLE POINT ENERGY      -726.495640076712
FINAL SINGLE POINT ENERGY      -726.495666787241
FINAL SINGLE POINT ENERGY      -726.495693972549
FINAL SINGLE POINT ENERGY      -726.495718868141
FINAL SINGLE POINT ENERGY      -726.495734030252
FINAL SINGLE POINT ENERGY      -726.495747121949
FINAL SINGLE POINT ENERGY      -726.495755549878
FINAL SINGLE POINT ENERGY      -726.495758332229
Dispersion correction           -0.060307663
FINAL SINGLE POINT ENERGY      -726.495763368270
Dispersion correction            ... Starting D4
Dispersion correction           -0.060297717
FINAL SINGLE POINT ENERGY      -726.495768112830
Dispersion correction            ... Starting D4
                    ***********************HURRAY********************

CARTESIAN COORDINATES (ANGSTROEM)
---------------------------------
  C      0.900493    2.386780   -1.260558
  H      1.672256    2.878993   -0.659819
  H      0.374825    3.138756   -1.850972
  H      1.407188    1.677889   -1.923245
  C     -0.124399    1.690695   -0.385501
  N      0.278644    0.571540    0.305884
  C      1.593225    0.011618    0.219978
  C      2.668609    0.668867    0.825503
  C      1.794982   -1.200176   -0.449748
  C      3.951962    0.129214    0.739585
  H      2.491151    1.594031    1.366554
  C      3.078916   -1.741238   -0.517256
  H      0.937247   -1.689311   -0.901288
  C      4.159469   -1.077286    0.068299
  H      4.785894    0.645436    1.207654
  H      3.236337   -2.682235   -1.037790
  H      5.158450   -1.500545    0.006325
  C     -0.774232   -0.156646    1.010182
  H     -0.300237   -0.974992    1.558461
  H     -1.249724    0.507897    1.732163
  C     -1.769502   -0.792315    0.023665
  N     -3.099576   -0.620974    0.263880
  O     -1.338939   -1.484554   -0.899327
  O     -1.284120    2.091078   -0.297940
  C     -3.629235    0.395364    1.173489
  H     -3.110149    1.345223    1.024272
  H     -4.687170    0.542064    0.941469
  H     -3.558889    0.087458    2.225012
  C     -4.053356   -1.294692   -0.608094
  H     -4.844739   -1.759682   -0.008384
  H     -4.514738   -0.585674   -1.309099
  H     -3.523643   -2.057582   -1.177353

 Multiplicity           Mult            ....    1
 Number of Electrons    NEL             ....  118
 Basis Dimension        Dim             ....  256

ORBITAL ENERGIES
----------------

  NO   OCC          E(Eh)            E(eV)
   0   2.0000     -19.104978      -519.8729
   1   2.0000     -19.097453      -519.6681
   2   2.0000     -14.356959      -390.6727
   3   2.0000     -14.352542      -390.5525
   4   2.0000     -10.277754      -279.6719
   5   2.0000     -10.271391      -279.4988
   6   2.0000     -10.220402      -278.1113
   7   2.0000     -10.216041      -277.9926
   8   2.0000     -10.202659      -277.6285
   9   2.0000     -10.197006      -277.4746
  10   2.0000     -10.186135      -277.1788
  11   2.0000     -10.185661      -277.1659
  12   2.0000     -10.184168      -277.1253
  13   2.0000     -10.183152      -277.0977
  14   2.0000     -10.176072      -276.9050
  15   2.0000     -10.172538      -276.8088
  16   2.0000      -1.031800       -28.0767
  17   2.0000      -1.018120       -27.7044
  18   2.0000      -0.935405       -25.4537
  19   2.0000      -0.922467       -25.1016
  20   2.0000      -0.845448       -23.0058
  21   2.0000      -0.760158       -20.6849
  22   2.0000      -0.744702       -20.2644
  23   2.0000      -0.739356       -20.1189
  24   2.0000      -0.718051       -19.5392
  25   2.0000      -0.702873       -19.1261
  26   2.0000      -0.669309       -18.2128
  27   2.0000      -0.618529       -16.8310
  28   2.0000      -0.606455       -16.5025
  29   2.0000      -0.557705       -15.1759
  30   2.0000      -0.533795       -14.5253
  31   2.0000      -0.513276       -13.9669
  32   2.0000      -0.498784       -13.5726
  33   2.0000      -0.490196       -13.3389
  34   2.0000      -0.473004       -12.8711
  35   2.0000      -0.460612       -12.5339
  36   2.0000      -0.456579       -12.4242
  37   2.0000      -0.450167       -12.2497
  38   2.0000      -0.440442       -11.9850
  39   2.0000      -0.429907       -11.6984
  40   2.0000      -0.419133       -11.4052
  41   2.0000      -0.407718       -11.0946
  42   2.0000      -0.402139       -10.9428
  43   2.0000      -0.399540       -10.8720
  44   2.0000      -0.394824       -10.7437
  45   2.0000      -0.389731       -10.6051
  46   2.0000      -0.387209       -10.5365
  47   2.0000      -0.369873       -10.0648
  48   2.0000      -0.364974        -9.9314
  49   2.0000      -0.358449        -9.7539
  50   2.0000      -0.353075        -9.6077
  51   2.0000      -0.346774        -9.4362
  52   2.0000      -0.336533        -9.1575
  53   2.0000      -0.268934        -7.3181
  54   2.0000      -0.251001        -6.8301
  55   2.0000      -0.250519        -6.8170
  56   2.0000      -0.238933        -6.5017
  57   2.0000      -0.231920        -6.3109
  58   2.0000      -0.224748        -6.1157
  59   0.0000      -0.007000        -0.1905
  60   0.0000      -0.002194        -0.0597
  61   0.0000       0.028742         0.7821
  62   0.0000       0.034801         0.9470
  63   0.0000       0.092087         2.5058

MULLIKEN ATOMIC CHARGES
-----------------------
   0 C :   -0.545408
   1 H :    0.170851
   2 H :    0.181112
   3 H :    0.182189
   4 C :    0.529307
   5 N :   -0.437293
   6 C :    0.203495
   7 C :   -0.141095
   8 C :   -0.149416
   9 C :   -0.143492
  10 H :    0.132407
  11 C :   -0.146228
  12 H :    0.191885
  13 C :   -0.116866
  14 H :    0.131738
  15 H :    0.135743
  16 H :    0.130153
  17 C :   -0.243756
  18 H :    0.177417
  19 H :    0.170294
  20 C :    0.555584
  21 N :   -0.371505
  22 O :   -0.487636
  23 O :   -0.475629
  24 C :   -0.343699
  25 H :    0.213867
  26 H :    0.160045
  27 H :    0.152366
  28 C :   -0.324185
  29 H :    0.149123
  30 H :    0.159825
  31 H :    0.198806
Sum of atomic charges:    0.0000000

LOEWDIN ATOMIC CHARGES
----------------------
   0 C :   -0.388332
   1 H :    0.145828
   2 H :    0.149636
   3 H :    0.150625
   4 C :    0.122119
   5 N :   -0.052827
   6 C :    0.013843
   7 C :   -0.136653
   8 C :   -0.135738
   9 C :   -0.129183
  10 H :    0.134085
  11 C :   -0.124701
  12 H :    0.160878
  13 C :   -0.128992
  14 H :    0.132787
  15 H :    0.134330
  16 H :    0.132323
  17 C :   -0.171092
  18 H :    0.150430
  19 H :    0.140291
  20 C :    0.105904
  21 N :   -0.080520
  22 O :   -0.292971
  23 O :   -0.281890
  24 C :   -0.285349
  25 H :    0.152263
  26 H :    0.134981
  27 H :    0.121405
  28 C :   -0.276927
  29 H :    0.123032
  30 H :    0.126199
  31 H :    0.154214

  Mayer bond orders larger than 0.100000
B(  0-C ,  1-H ) :   0.9287 B(  0-C ,  2-H ) :   0.9402 B(  0-C ,  3-H ) :   0.9271
B(  0-C ,  4-C ) :   0.9895 B(  4-C ,  5-N ) :   1.1215 B(  4-C , 23-O ) :   1.8177
B(  5-N ,  6-C ) :   0.8877 B(  5-N , 17-C ) :   0.9594 B(  6-C ,  7-C ) :   1.4298
B(  6-C ,  8-C ) :   1.4460 B(  7-C ,  9-C ) :   1.4326 B(  7-C , 10-H ) :   0.9218
B(  8-C , 11-C ) :   1.4205 B(  8-C , 12-H ) :   0.8760 B(  9-C , 13-C ) :   1.4528
B(  9-C , 14-H ) :   0.9281 B( 11-C , 13-C ) :   1.4473 B( 11-C , 15-H ) :   0.9289
B( 13-C , 16-H ) :   0.9309 B( 17-C , 18-H ) :   0.9212 B( 17-C , 19-H ) :   0.9105
B( 17-C , 20-C ) :   0.9164 B( 20-C , 21-N ) :   1.1564 B( 20-C , 22-O ) :   1.7837
B( 21-N , 24-C ) :   0.9426 B( 21-N , 28-C ) :   0.9573 B( 24-C , 25-H ) :   0.9025
B( 24-C , 26-H ) :   0.9455 B( 24-C , 27-H ) :   0.9390 B( 28-C , 29-H ) :   0.9434
B( 28-C , 30-H ) :   0.9390 B( 28-C , 31-H ) :   0.9224

Dispersion correction           -0.060291391
FINAL SINGLE POINT ENERGY      -726.495772335052

DIPOLE MOMENT
-------------
                                X             Y             Z
Electronic contribution:      6.10991      -1.22057      -0.28877
Nuclear contribution   :     -5.86346       1.21220       1.09786
                        -----------------------------------------
Total Dipole Moment    :      0.24645      -0.00837       0.80909
                        -----------------------------------------
Magnitude (a.u.)       :      0.84584
Magnitude (Debye)      :      2.14995

Dispersion correction in the Hessian             ... Starting D4

VIBRATIONAL FREQUENCIES
-----------------------

Scaling factor for frequencies =  1.000000000  (already applied!)

   0:         0.00 cm**-1
   1:         0.00 cm**-1
   2:         0.00 cm**-1
   3:         0.00 cm**-1
   4:         0.00 cm**-1
   5:         0.00 cm**-1
   6:        38.61 cm**-1
   7:        43.16 cm**-1
   8:        60.41 cm**-1
   9:        78.22 cm**-1
  10:        90.56 cm**-1
  11:        96.01 cm**-1
  12:       114.83 cm**-1
  13:       119.57 cm**-1
  14:       135.32 cm**-1
  15:       173.68 cm**-1
  16:       198.42 cm**-1
  17:       230.97 cm**-1
  18:       250.38 cm**-1
  19:       280.63 cm**-1
  20:       355.08 cm**-1
  21:       397.71 cm**-1
  22:       420.24 cm**-1
  23:       424.91 cm**-1
  24:       427.07 cm**-1
  25:       440.78 cm**-1
  26:       492.08 cm**-1
  27:       554.67 cm**-1
  28:       590.16 cm**-1
  29:       606.60 cm**-1
  30:       634.82 cm**-1
  31:       637.91 cm**-1
  32:       679.30 cm**-1
  33:       719.62 cm**-1
  34:       744.59 cm**-1
  35:       791.36 cm**-1
  36:       838.78 cm**-1
  37:       868.76 cm**-1
  38:       922.80 cm**-1
  39:       944.79 cm**-1
  40:       979.63 cm**-1
  41:       983.90 cm**-1
  42:      1008.20 cm**-1
  43:      1014.26 cm**-1
  44:      1021.10 cm**-1
  45:      1044.78 cm**-1
  46:      1064.16 cm**-1
  47:      1068.22 cm**-1
  48:      1095.37 cm**-1
  49:      1107.41 cm**-1
  50:      1133.37 cm**-1
  51:      1141.58 cm**-1
  52:      1176.14 cm**-1
  53:      1185.35 cm**-1
  54:      1191.99 cm**-1
  55:      1207.23 cm**-1
  56:      1262.00 cm**-1
  57:      1301.32 cm**-1
  58:      1331.15 cm**-1
  59:      1352.96 cm**-1
  60:      1365.31 cm**-1
  61:      1378.88 cm**-1
  62:      1413.57 cm**-1
  63:      1436.93 cm**-1
  64:      1449.90 cm**-1
  65:      1458.76 cm**-1
  66:      1493.60 cm**-1
  67:      1495.94 cm**-1
  68:      1499.76 cm**-1
  69:      1502.71 cm**-1
  70:      1510.80 cm**-1
  71:      1521.86 cm**-1
  72:      1536.40 cm**-1
  73:      1544.65 cm**-1
  74:      1547.78 cm**-1
  75:      1560.75 cm**-1
  76:      1643.32 cm**-1
  77:      1660.76 cm**-1
  78:      1750.34 cm**-1
  79:      1755.52 cm**-1
  80:      3032.98 cm**-1
  81:      3040.32 cm**-1
  82:      3070.32 cm**-1
  83:      3089.22 cm**-1
  84:      3102.75 cm**-1
  85:      3119.45 cm**-1
  86:      3133.12 cm**-1
  87:      3152.93 cm**-1
  88:      3159.40 cm**-1
  89:      3174.13 cm**-1
  90:      3184.13 cm**-1
  91:      3188.96 cm**-1
  92:      3193.25 cm**-1
  93:      3202.87 cm**-1
  94:      3211.90 cm**-1
  95:      3220.48 cm**-1

IR SPECTRUM
-----------

 Mode   freq       eps      Int      T**2         TX        TY        TZ
       cm**-1   L/(mol*cm) km/mol    a.u.
----------------------------------------------------------------------------
  6:     38.61   0.000203    1.03  0.001642  (-0.012276  0.012430 -0.036563)
  7:     43.16   0.000059    0.30  0.000426  ( 0.018733 -0.008225 -0.002709)
  8:     60.41   0.000679    3.43  0.003506  (-0.009580 -0.042910  0.039661)
  9:     78.22   0.000747    3.78  0.002981  ( 0.049597  0.015129  0.017103)
 10:     90.56   0.000486    2.46  0.001675  ( 0.001560  0.040246  0.007290)
 11:     96.01   0.000633    3.20  0.002057  (-0.020781 -0.025892 -0.030902)
 12:    114.83   0.000435    2.20  0.001182  (-0.028914 -0.016381  0.008790)
 13:    119.57   0.000226    1.14  0.000589  ( 0.008747  0.021879  0.005814)
 14:    135.32   0.000101    0.51  0.000234  (-0.003311 -0.012320 -0.008417)
 15:    173.68   0.000172    0.87  0.000309  (-0.008717 -0.006249  0.013926)
 16:    198.42   0.000334    1.69  0.000526  (-0.014867 -0.010719  0.013769)
 17:    230.97   0.000289    1.46  0.000391  ( 0.018150 -0.003047 -0.007226)
 18:    250.38   0.001112    5.62  0.001386  ( 0.025658  0.015602 -0.021997)
 19:    280.63   0.001041    5.26  0.001158  (-0.008230 -0.026025  0.020325)
 20:    355.08   0.001165    5.89  0.001024  (-0.029729 -0.000709 -0.011805)
 21:    397.71   0.001839    9.29  0.001443  ( 0.005347 -0.034383  0.015245)
 22:    420.24   0.003522   17.80  0.002615  (-0.046375 -0.021493  0.001677)
 23:    424.91   0.000056    0.28  0.000041  (-0.003056 -0.005070  0.002438)
 24:    427.07   0.000111    0.56  0.000081  ( 0.008113  0.003235 -0.002187)
 25:    440.78   0.000679    3.43  0.000481  (-0.007466 -0.018642 -0.008821)
 26:    492.08   0.001400    7.07  0.000888  (-0.015313 -0.009580  0.023697)
 27:    554.67   0.003736   18.88  0.002102  (-0.000641  0.030239 -0.034456)
 28:    590.16   0.003903   19.72  0.002064  (-0.034746 -0.012147  0.026626)
 29:    606.60   0.001408    7.11  0.000724  ( 0.014833  0.004593  0.021980)
 30:    634.82   0.000311    1.57  0.000153  ( 0.005702 -0.007919  0.007597)
 31:    637.91   0.002704   13.66  0.001323  ( 0.034004 -0.012754 -0.001922)
 32:    679.30   0.000374    1.89  0.000172  (-0.010687 -0.007383  0.001704)
 33:    719.62   0.005534   27.97  0.002400  ( 0.014936  0.023160 -0.040500)
 34:    744.59   0.001119    5.65  0.000469  (-0.003326 -0.010921  0.018397)
 35:    791.36   0.002956   14.94  0.001166  ( 0.003464 -0.010596  0.032273)
 36:    838.78   0.000742    3.75  0.000276  (-0.002896 -0.013673 -0.008991)
 37:    868.76   0.000071    0.36  0.000026  (-0.001469 -0.003816  0.002990)
 38:    922.80   0.000598    3.02  0.000202  ( 0.006339  0.002169  0.012538)
 39:    944.79   0.000331    1.67  0.000109  ( 0.002185  0.000496 -0.010211)
 40:    979.63   0.000855    4.32  0.000272  (-0.014376 -0.006016 -0.005419)
 41:    983.90   0.000060    0.30  0.000019  (-0.001596  0.000224 -0.004045)
 42:   1008.20   0.004609   23.29  0.001427  ( 0.027945 -0.022941  0.010924)
 43:   1014.26   0.000362    1.83  0.000112  (-0.005338 -0.002818  0.008665)
 44:   1021.10   0.000089    0.45  0.000027  ( 0.005032 -0.000966 -0.000892)
 45:   1044.78   0.001341    6.78  0.000401  ( 0.003780  0.011608 -0.015862)
 46:   1064.16   0.003136   15.85  0.000920  ( 0.029456  0.004507 -0.005624)
 47:   1068.22   0.001522    7.69  0.000445  (-0.009381  0.012599  0.014071)
 48:   1095.37   0.002769   13.99  0.000789  (-0.005882  0.019422  0.019419)
 49:   1107.41   0.001421    7.18  0.000400  ( 0.015549 -0.004839 -0.011624)
 50:   1133.37   0.000525    2.65  0.000145  (-0.006173 -0.010289  0.000781)
 51:   1141.58   0.001720    8.69  0.000470  ( 0.020945  0.002620 -0.004951)
 52:   1176.14   0.000242    1.22  0.000064  ( 0.005463 -0.005786  0.000983)
 53:   1185.35   0.027921  141.10  0.007351  (-0.085323 -0.008332 -0.001111)
 54:   1191.99   0.000206    1.04  0.000054  (-0.007340  0.000072  0.000048)
 55:   1207.23   0.000771    3.90  0.000199  ( 0.014055 -0.000909  0.000947)
 56:   1262.00   0.005936   30.00  0.001468  (-0.029812  0.024044  0.000928)
 57:   1301.32   0.006363   32.16  0.001526  (-0.029814 -0.018818 -0.016823)
 58:   1331.15   0.010655   53.84  0.002498  (-0.007624  0.041462 -0.026842)
 59:   1352.96   0.010274   51.92  0.002370  ( 0.013657  0.040907 -0.022577)
 60:   1365.31   0.001376    6.96  0.000315  (-0.015640  0.001097  0.008293)
 61:   1378.88   0.004519   22.84  0.001023  (-0.028321 -0.008186  0.012393)
 62:   1413.57   0.005130   25.93  0.001133  ( 0.023783 -0.022810  0.006829)
 63:   1436.93   0.031591  159.65  0.006861  (-0.016948  0.070181 -0.040598)
 64:   1449.90   0.011446   57.84  0.002463  ( 0.048173 -0.010879 -0.004947)
 65:   1458.76   0.003471   17.54  0.000743  ( 0.025267  0.005918  0.008317)
 66:   1493.60   0.010918   55.18  0.002281  ( 0.041166  0.004252  0.023843)
 67:   1495.94   0.001068    5.40  0.000223  (-0.008479  0.012280 -0.000311)
 68:   1499.76   0.002708   13.68  0.000563  ( 0.007832  0.020907 -0.008063)
 69:   1502.71   0.002102   10.62  0.000437  ( 0.011502  0.013530 -0.011006)
 70:   1510.80   0.002814   14.22  0.000581  ( 0.001408  0.004630  0.023620)
 71:   1521.86   0.001293    6.54  0.000265  ( 0.002799  0.015986  0.001343)
 72:   1536.40   0.000980    4.95  0.000199  ( 0.001713  0.001072  0.013964)
 73:   1544.65   0.000442    2.23  0.000089  (-0.002552  0.007116 -0.005666)
 74:   1547.78   0.016730   84.54  0.003373  ( 0.055199 -0.018030 -0.001000)
 75:   1560.75   0.009526   48.14  0.001905  (-0.042885  0.007310  0.003462)
 76:   1643.32   0.001231    6.22  0.000234  (-0.005470  0.012743  0.006442)
 77:   1660.76   0.008482   42.86  0.001594  ( 0.038100 -0.011919  0.000370)
 78:   1750.34   0.012337   62.35  0.002200  (-0.030645  0.013023 -0.033029)
 79:   1755.52   0.110520  558.52  0.019646  (-0.119797  0.060772  0.040022)
 80:   3032.98   0.010174   51.42  0.001047  ( 0.019043  0.004786  0.025715)
 81:   3040.32   0.012209   61.70  0.001253  (-0.030191  0.002476  0.018316)
 82:   3070.32   0.000879    4.44  0.000089  (-0.008638 -0.002683  0.002739)
 83:   3089.22   0.007232   36.55  0.000731  (-0.009617 -0.018530  0.017166)
 84:   3102.75   0.002776   14.03  0.000279  ( 0.005638  0.005610 -0.014694)
 85:   3119.45   0.004625   23.37  0.000463  (-0.019152  0.005719 -0.007948)
 86:   3133.12   0.001150    5.81  0.000115  (-0.003928 -0.004914 -0.008659)
 87:   3152.93   0.001684    8.51  0.000167  (-0.010632  0.005130  0.005222)
 88:   3159.40   0.001384    7.00  0.000137  (-0.002637  0.005897  0.009746)
 89:   3174.13   0.002379   12.02  0.000234  ( 0.008904 -0.011064  0.005677)
 90:   3184.13   0.000053    0.27  0.000005  ( 0.000239 -0.002190 -0.000567)
 91:   3188.96   0.000342    1.73  0.000033  (-0.000181 -0.004694 -0.003370)
 92:   3193.25   0.002539   12.83  0.000248  ( 0.012839  0.006775  0.006114)
 93:   3202.87   0.005602   28.31  0.000546  (-0.007645  0.019948  0.009461)
 94:   3211.90   0.002233   11.29  0.000217  (-0.014113 -0.001023 -0.004093)
 95:   3220.48   0.005039   25.47  0.000488  (-0.022051  0.001355 -0.000438)

--------------------------
THERMOCHEMISTRY AT 298.15K
--------------------------

Temperature         ... 298.15 K
Pressure            ... 1.00 atm
Total Mass          ... 220.27 AMU

Throughout the following assumptions are being made:
  (1) The electronic state is orbitally nondegenerate
  (2) There are no thermally accessible electronically excited states
  (3) Hindered rotations indicated by low frequency modes are not
      treated as such but are treated as vibrations and this may
      cause some error
  (4) All equations used are the standard statistical mechanics
      equations for an ideal gas
  (5) All vibrations are strictly harmonic

freq.      38.61  E(vib)   ...       0.54
freq.      43.16  E(vib)   ...       0.53
freq.      60.41  E(vib)   ...       0.51
freq.      78.22  E(vib)   ...       0.49
freq.      90.56  E(vib)   ...       0.47
freq.      96.01  E(vib)   ...       0.47
freq.     114.83  E(vib)   ...       0.44
freq.     119.57  E(vib)   ...       0.44
freq.     135.32  E(vib)   ...       0.42
freq.     173.68  E(vib)   ...       0.38
freq.     198.42  E(vib)   ...       0.35
freq.     230.97  E(vib)   ...       0.32
freq.     250.38  E(vib)   ...       0.30
freq.     280.63  E(vib)   ...       0.28
freq.     355.08  E(vib)   ...       0.22
freq.     397.71  E(vib)   ...       0.20
freq.     420.24  E(vib)   ...       0.18
freq.     424.91  E(vib)   ...       0.18
freq.     427.07  E(vib)   ...       0.18
freq.     440.78  E(vib)   ...       0.17
freq.     492.08  E(vib)   ...       0.14
freq.     554.67  E(vib)   ...       0.12
freq.     590.16  E(vib)   ...       0.10
freq.     606.60  E(vib)   ...       0.10
freq.     634.82  E(vib)   ...       0.09
freq.     637.91  E(vib)   ...       0.09
freq.     679.30  E(vib)   ...       0.08
freq.     719.62  E(vib)   ...       0.07
freq.     744.59  E(vib)   ...       0.06
freq.     791.36  E(vib)   ...       0.05
freq.     838.78  E(vib)   ...       0.04
freq.     868.76  E(vib)   ...       0.04
freq.     922.80  E(vib)   ...       0.03
freq.     944.79  E(vib)   ...       0.03
freq.     979.63  E(vib)   ...       0.03
freq.     983.90  E(vib)   ...       0.02
freq.    1008.20  E(vib)   ...       0.02
freq.    1014.26  E(vib)   ...       0.02
freq.    1021.10  E(vib)   ...       0.02
freq.    1044.78  E(vib)   ...       0.02
freq.    1064.16  E(vib)   ...       0.02
freq.    1068.22  E(vib)   ...       0.02
freq.    1095.37  E(vib)   ...       0.02
freq.    1107.41  E(vib)   ...       0.02
freq.    1133.37  E(vib)   ...       0.01
freq.    1141.58  E(vib)   ...       0.01
freq.    1176.14  E(vib)   ...       0.01
freq.    1185.35  E(vib)   ...       0.01
freq.    1191.99  E(vib)   ...       0.01
freq.    1207.23  E(vib)   ...       0.01
freq.    1262.00  E(vib)   ...       0.01
freq.    1301.32  E(vib)   ...       0.01
freq.    1331.15  E(vib)   ...       0.01
freq.    1352.96  E(vib)   ...       0.01
freq.    1365.31  E(vib)   ...       0.01
freq.    1378.88  E(vib)   ...       0.01
freq.    1413.57  E(vib)   ...       0.00
freq.    1436.93  E(vib)   ...       0.00
freq.    1449.90  E(vib)   ...       0.00
freq.    1458.76  E(vib)   ...       0.00
freq.    1493.60  E(vib)   ...       0.00
freq.    1495.94  E(vib)   ...       0.00
freq.    1499.76  E(vib)   ...       0.00
freq.    1502.71  E(vib)   ...       0.00
freq.    1510.80  E(vib)   ...       0.00
freq.    1521.86  E(vib)   ...       0.00
freq.    1536.40  E(vib)   ...       0.00
freq.    1544.65  E(vib)   ...       0.00
freq.    1547.78  E(vib)   ...       0.00
freq.    1560.75  E(vib)   ...       0.00
freq.    1643.32  E(vib)   ...       0.00
freq.    1660.76  E(vib)   ...       0.00
freq.    1750.34  E(vib)   ...       0.00
freq.    1755.52  E(vib)   ...       0.00
freq.    3032.98  E(vib)   ...       0.00
freq.    3040.32  E(vib)   ...       0.00
freq.    3070.32  E(vib)   ...       0.00
freq.    3089.22  E(vib)   ...       0.00
freq.    3102.75  E(vib)   ...       0.00
freq.    3119.45  E(vib)   ...       0.00
freq.    3133.12  E(vib)   ...       0.00
freq.    3152.93  E(vib)   ...       0.00
freq.    3159.40  E(vib)   ...       0.00
freq.    3174.13  E(vib)   ...       0.00
freq.    3184.13  E(vib)   ...       0.00
freq.    3188.96  E(vib)   ...       0.00
freq.    3193.25  E(vib)   ...       0.00
freq.    3202.87  E(vib)   ...       0.00
freq.    3211.90  E(vib)   ...       0.00
freq.    3220.48  E(vib)   ...       0.00

------------
INNER ENERGY
------------

The inner energy is: U= E(el) + E(ZPE) + E(vib) + E(rot) + E(trans)
    E(el)   - is the total energy from the electronic structure calculation
              = E(kin-el) + E(nuc-el) + E(el-el) + E(nuc-nuc)
    E(ZPE)  - the the zero temperature vibrational energy from the frequency calculation
    E(vib)  - the the finite temperature correction to E(ZPE) due to population
              of excited vibrational states
    E(rot)  - is the rotational thermal energy
    E(trans)- is the translational thermal energy

Summary of contributions to the inner energy U:
Electronic energy                ...   -726.49577234 Eh
Zero point energy                ...      0.26854281 Eh     168.51 kcal/mol
Thermal vibrational correction   ...      0.01349839 Eh       8.47 kcal/mol
Thermal rotational correction    ...      0.00141627 Eh       0.89 kcal/mol
Thermal translational correction ...      0.00141627 Eh       0.89 kcal/mol
-----------------------------------------------------------------------
Total thermal energy                   -726.21089859 Eh

Summary of corrections to the electronic energy:
(perhaps to be used in another calculation)
Total thermal correction                  0.01633093 Eh      10.25 kcal/mol
Non-thermal (ZPE) correction              0.26854281 Eh     168.51 kcal/mol
-----------------------------------------------------------------------
Total correction                          0.28487375 Eh     178.76 kcal/mol

--------
ENTHALPY
--------

The enthalpy is H = U + kB*T
                kB is Boltzmann's constant
Total free energy                 ...   -726.21089859 Eh
Thermal Enthalpy correction       ...      0.00094421 Eh       0.59 kcal/mol
-----------------------------------------------------------------------
Total Enthalpy                    ...   -726.20995438 Eh

Note: Only C1 symmetry has been detected, increase convergence thresholds
      if your molecule has a higher symmetry. Symmetry factor of 1.0 is
      used for the rotational entropy correction.

Note: Rotational entropy computed according to Herzberg
Infrared and Raman Spectra, Chapter V,1, Van Nostrand Reinhold, 1945
Point Group:  C1, Symmetry Number:   1
Rotational constants in cm-1:     0.034488     0.010803     0.009318

                             ****ORCA TERMINATED NORMALLY****
TOTAL RUN TIME: 0 days 0 hours 31 minutes 18 seconds 166 msec
