                         Program Version 5.0.4 -  RELEASE  -
|  1> ! OPT FREQ B3LYP 6-31G(d) D4 AUTOAUX
|  2>
|  3> %PAL NPROCS 4 END
|  4>
|  5> %maxcore 3375
|  6>
|  7> *xyzfile 0 1 /users/fjb15167/WWenergy/structures/Nn.xyz
|  8>
|  9>                          ****END OF INPUT****
 Total Charge           Charge          ....    0
 Multiplicity           Mult            ....    1
 Number of Electrons    NEL             ....  108
Dispersion correction           -0.046699167
FINAL SINGLE POINT ENERGY      -703.468166978431
Dispersion correction            ... Starting D4
Dispersion correction           -0.046470307
FINAL SINGLE POINT ENERGY      -703.475711748542
Dispersion correction            ... Starting D4
Dispersion correction           -0.046480895
FINAL SINGLE POINT ENERGY      -703.475992669491
Dispersion correction            ... Starting D4
FINAL SINGLE POINT ENERGY      -703.476041965426
FINAL SINGLE POINT ENERGY      -703.476073499862
FINAL SINGLE POINT ENERGY      -703.476086079512
FINAL SINGLE POINT ENERGY      -703.476096385593
FINAL SINGLE POINT ENERGY      -703.476101855750
FINAL SINGLE POINT ENERGY      -703.476109302265
FINAL SINGLE POINT ENERGY      -703.476116312686
FINAL SINGLE POINT ENERGY      -703.476214826917
FINAL SINGLE POINT ENERGY      -703.476215913031
FINAL SINGLE POINT ENERGY      -703.476219657029
FINAL SINGLE POINT ENERGY      -703.476225920761
FINAL SINGLE POINT ENERGY      -703.476232450189
FINAL SINGLE POINT ENERGY      -703.476246238690
FINAL SINGLE POINT ENERGY      -703.476250628017
Dispersion correction           -0.046445725
FINAL SINGLE POINT ENERGY      -703.476255903998
Dispersion correction            ... Starting D4
Dispersion correction           -0.046443522
FINAL SINGLE POINT ENERGY      -703.476258548279
Dispersion correction            ... Starting D4
                    ***********************HURRAY********************

CARTESIAN COORDINATES (ANGSTROEM)
---------------------------------
  C      1.498323   -1.736823   -0.693724
  H      2.823148   -0.930666   -2.230315
  H      3.303773   -2.485664   -1.512219
  H      3.519433   -0.973903   -0.593883
  O      1.067975   -2.868750   -0.503139
  C      2.872673   -1.506896   -1.298936
  N      0.751295   -0.615183   -0.382327
  C     -0.460644   -0.820119    0.385299
  H     -0.598924   -1.901853    0.443729
  H     -0.319343   -0.450138    1.412328
  C      1.281362    0.727296   -0.425457
  H      1.968990    0.836144   -1.268900
  H      0.452296    1.413614   -0.617952
  C      2.035406    1.099079    0.862429
  O      2.435033    0.261468    1.657069
  N      2.255080    2.437783    1.015853
  H      1.817236    3.126004    0.421521
  H      2.729648    2.753872    1.850236
  C     -1.682224   -0.144119   -0.249058
  O     -1.574979    0.596527   -1.224566
  N     -2.887427   -0.382680    0.359900
  C     -3.091679   -1.349039    1.428272
  H     -2.178808   -1.509857    2.001266
  H     -3.854940   -0.966479    2.115700
  H     -3.437456   -2.318091    1.039591
  C     -4.095845    0.175168   -0.229836
  H     -4.721608   -0.617918   -0.662689
  H     -4.681962    0.699882    0.535238
  H     -3.804831    0.871341   -1.015431

 Multiplicity           Mult            ....    1
 Number of Electrons    NEL             ....  108
 Basis Dimension        Dim             ....  226

ORBITAL ENERGIES
----------------

  NO   OCC          E(Eh)            E(eV)
   0   2.0000     -19.114306      -520.1267
   1   2.0000     -19.105461      -519.8860
   2   2.0000     -19.094202      -519.5796
   3   2.0000     -14.359887      -390.7524
   4   2.0000     -14.355862      -390.6429
   5   2.0000     -14.348876      -390.4528
   6   2.0000     -10.288010      -279.9510
   7   2.0000     -10.279366      -279.7158
   8   2.0000     -10.270490      -279.4742
   9   2.0000     -10.218101      -278.0487
  10   2.0000     -10.217627      -278.0358
  11   2.0000     -10.210139      -277.8320
  12   2.0000     -10.203882      -277.6617
  13   2.0000     -10.168537      -276.7000
  14   2.0000      -1.037154       -28.2224
  15   2.0000      -1.030167       -28.0323
  16   2.0000      -1.016939       -27.6723
  17   2.0000      -0.932543       -25.3758
  18   2.0000      -0.925055       -25.1720
  19   2.0000      -0.909706       -24.7543
  20   2.0000      -0.760721       -20.7003
  21   2.0000      -0.731455       -19.9039
  22   2.0000      -0.725670       -19.7465
  23   2.0000      -0.706972       -19.2377
  24   2.0000      -0.665982       -18.1223
  25   2.0000      -0.603376       -16.4187
  26   2.0000      -0.560374       -15.2486
  27   2.0000      -0.551359       -15.0033
  28   2.0000      -0.522017       -14.2048
  29   2.0000      -0.507728       -13.8160
  30   2.0000      -0.496547       -13.5117
  31   2.0000      -0.479878       -13.0582
  32   2.0000      -0.470535       -12.8039
  33   2.0000      -0.469115       -12.7653
  34   2.0000      -0.456230       -12.4146
  35   2.0000      -0.431929       -11.7534
  36   2.0000      -0.427350       -11.6288
  37   2.0000      -0.416505       -11.3337
  38   2.0000      -0.407990       -11.1020
  39   2.0000      -0.405474       -11.0335
  40   2.0000      -0.403714       -10.9856
  41   2.0000      -0.398115       -10.8333
  42   2.0000      -0.383826       -10.4444
  43   2.0000      -0.381041       -10.3686
  44   2.0000      -0.379789       -10.3346
  45   2.0000      -0.363638        -9.8951
  46   2.0000      -0.347617        -9.4591
  47   2.0000      -0.343553        -9.3485
  48   2.0000      -0.274069        -7.4578
  49   2.0000      -0.260536        -7.0895
  50   2.0000      -0.252224        -6.8634
  51   2.0000      -0.241415        -6.5692
  52   2.0000      -0.235186        -6.3997
  53   2.0000      -0.226014        -6.1501
  54   0.0000       0.022661         0.6166
  55   0.0000       0.028351         0.7715
  56   0.0000       0.038939         1.0596
  57   0.0000       0.068571         1.8659
  58   0.0000       0.087971         2.3938

MULLIKEN ATOMIC CHARGES
-----------------------
   0 C :    0.546193
   1 H :    0.164424
   2 H :    0.184725
   3 H :    0.185368
   4 O :   -0.469744
   5 C :   -0.560940
   6 N :   -0.349504
   7 C :   -0.274210
   8 H :    0.215607
   9 H :    0.174863
  10 C :   -0.274560
  11 H :    0.182400
  12 H :    0.195961
  13 C :    0.539118
  14 O :   -0.456292
  15 N :   -0.739322
  16 H :    0.341147
  17 H :    0.346615
  18 C :    0.540492
  19 O :   -0.480720
  20 N :   -0.379832
  21 C :   -0.323183
  22 H :    0.181713
  23 H :    0.159958
  24 H :    0.165812
  25 C :   -0.322338
  26 H :    0.154556
  27 H :    0.149358
  28 H :    0.202334
Sum of atomic charges:    0.0000000

LOEWDIN ATOMIC CHARGES
----------------------
   0 C :    0.125107
   1 H :    0.138960
   2 H :    0.151867
   3 H :    0.150912
   4 O :   -0.274799
   5 C :   -0.393282
   6 N :   -0.063737
   7 C :   -0.195329
   8 H :    0.169386
   9 H :    0.139243
  10 C :   -0.199838
  11 H :    0.151604
  12 H :    0.154108
  13 C :    0.090642
  14 O :   -0.265928
  15 N :   -0.371827
  16 H :    0.254878
  17 H :    0.259513
  18 C :    0.104806
  19 O :   -0.285345
  20 N :   -0.091110
  21 C :   -0.275485
  22 H :    0.142038
  23 H :    0.130847
  24 H :    0.127189
  25 C :   -0.277702
  26 H :    0.123789
  27 H :    0.123110
  28 H :    0.156385

  Mayer bond orders larger than 0.100000
B(  0-C ,  4-O ) :   1.8539 B(  0-C ,  5-C ) :   0.9795 B(  0-C ,  6-N ) :   1.0986
B(  1-H ,  5-C ) :   0.9293 B(  2-H ,  5-C ) :   0.9424 B(  3-H ,  5-C ) :   0.9222
B(  6-N ,  7-C ) :   0.9678 B(  6-N , 10-C ) :   0.9999 B(  7-C ,  8-H ) :   0.8783
B(  7-C ,  9-H ) :   0.9071 B(  7-C , 18-C ) :   0.9228 B( 10-C , 11-H ) :   0.9124
B( 10-C , 12-H ) :   0.8948 B( 10-C , 13-C ) :   0.8925 B( 13-C , 14-O ) :   1.8948
B( 13-C , 15-N ) :   1.1111 B( 15-N , 16-H ) :   0.8316 B( 15-N , 17-H ) :   0.8274
B( 18-C , 19-O ) :   1.8067 B( 18-C , 20-N ) :   1.1277 B( 20-N , 21-C ) :   0.9652
B( 20-N , 25-C ) :   0.9569 B( 21-C , 22-H ) :   0.9301 B( 21-C , 23-H ) :   0.9387
B( 21-C , 24-H ) :   0.9315 B( 25-C , 26-H ) :   0.9404 B( 25-C , 27-H ) :   0.9413
B( 25-C , 28-H ) :   0.9192

Dispersion correction           -0.046440007
FINAL SINGLE POINT ENERGY      -703.476259333500

DIPOLE MOMENT
-------------
                                X             Y             Z
Electronic contribution:      6.24388       0.06209      -0.47648
Nuclear contribution   :     -6.92587       1.69226       0.95672
                        -----------------------------------------
Total Dipole Moment    :     -0.68199       1.75436       0.48025
                        -----------------------------------------
Magnitude (a.u.)       :      1.94255
Magnitude (Debye)      :      4.93758

Dispersion correction in the Hessian             ... Starting D4

VIBRATIONAL FREQUENCIES
-----------------------

Scaling factor for frequencies =  1.000000000  (already applied!)

   0:         0.00 cm**-1
   1:         0.00 cm**-1
   2:         0.00 cm**-1
   3:         0.00 cm**-1
   4:         0.00 cm**-1
   5:         0.00 cm**-1
   6:        28.47 cm**-1
   7:        33.19 cm**-1
   8:        41.36 cm**-1
   9:        59.93 cm**-1
  10:        73.88 cm**-1
  11:        89.41 cm**-1
  12:        98.17 cm**-1
  13:       130.09 cm**-1
  14:       142.51 cm**-1
  15:       178.47 cm**-1
  16:       199.81 cm**-1
  17:       204.87 cm**-1
  18:       221.98 cm**-1
  19:       261.08 cm**-1
  20:       298.90 cm**-1
  21:       341.52 cm**-1
  22:       392.01 cm**-1
  23:       397.26 cm**-1
  24:       416.91 cm**-1
  25:       440.19 cm**-1
  26:       486.47 cm**-1
  27:       541.52 cm**-1
  28:       571.32 cm**-1
  29:       580.94 cm**-1
  30:       591.24 cm**-1
  31:       632.60 cm**-1
  32:       639.83 cm**-1
  33:       695.40 cm**-1
  34:       801.38 cm**-1
  35:       828.61 cm**-1
  36:       859.10 cm**-1
  37:       964.90 cm**-1
  38:       990.61 cm**-1
  39:      1006.05 cm**-1
  40:      1013.61 cm**-1
  41:      1067.21 cm**-1
  42:      1091.08 cm**-1
  43:      1096.63 cm**-1
  44:      1117.86 cm**-1
  45:      1136.52 cm**-1
  46:      1164.57 cm**-1
  47:      1185.72 cm**-1
  48:      1246.23 cm**-1
  49:      1264.89 cm**-1
  50:      1295.67 cm**-1
  51:      1314.23 cm**-1
  52:      1336.67 cm**-1
  53:      1377.70 cm**-1
  54:      1409.80 cm**-1
  55:      1412.94 cm**-1
  56:      1447.83 cm**-1
  57:      1458.54 cm**-1
  58:      1466.30 cm**-1
  59:      1493.01 cm**-1
  60:      1497.78 cm**-1
  61:      1501.49 cm**-1
  62:      1521.90 cm**-1
  63:      1522.32 cm**-1
  64:      1525.57 cm**-1
  65:      1528.96 cm**-1
  66:      1532.18 cm**-1
  67:      1563.27 cm**-1
  68:      1646.22 cm**-1
  69:      1756.36 cm**-1
  70:      1773.12 cm**-1
  71:      1811.84 cm**-1
  72:      3018.47 cm**-1
  73:      3024.65 cm**-1
  74:      3031.84 cm**-1
  75:      3058.32 cm**-1
  76:      3080.29 cm**-1
  77:      3089.27 cm**-1
  78:      3094.71 cm**-1
  79:      3125.00 cm**-1
  80:      3134.28 cm**-1
  81:      3134.65 cm**-1
  82:      3176.10 cm**-1
  83:      3176.80 cm**-1
  84:      3189.90 cm**-1
  85:      3584.93 cm**-1
  86:      3711.21 cm**-1

IR SPECTRUM
-----------

 Mode   freq       eps      Int      T**2         TX        TY        TZ
       cm**-1   L/(mol*cm) km/mol    a.u.
----------------------------------------------------------------------------
  6:     28.47   0.000406    2.05  0.004454  (-0.042012  0.031524  0.041174)
  7:     33.19   0.000665    3.36  0.006256  ( 0.072147 -0.004598 -0.032091)
  8:     41.36   0.000812    4.10  0.006126  (-0.026953 -0.057840 -0.045328)
  9:     59.93   0.000351    1.77  0.001828  ( 0.038264 -0.014939 -0.011848)
 10:     73.88   0.000483    2.44  0.002041  ( 0.029961  0.023043  0.024742)
 11:     89.41   0.000496    2.51  0.001732  ( 0.033784 -0.015408 -0.018786)
 12:     98.17   0.001085    5.48  0.003449  ( 0.027485 -0.002561  0.051837)
 13:    130.09   0.002740   13.85  0.006574  (-0.078807 -0.013895 -0.013054)
 14:    142.51   0.000360    1.82  0.000788  (-0.026041 -0.007376 -0.007440)
 15:    178.47   0.044613  225.46  0.078009  (-0.232512 -0.054641  0.144779)
 16:    199.81   0.000965    4.87  0.001506  ( 0.010871 -0.022688 -0.029556)
 17:    204.87   0.000064    0.33  0.000098  ( 0.002581 -0.001968 -0.009356)
 18:    221.98   0.002065   10.44  0.002904  ( 0.022610 -0.026693 -0.040986)
 19:    261.08   0.000229    1.16  0.000273  (-0.016265  0.001365  0.002648)
 20:    298.90   0.001914    9.67  0.001998  ( 0.041210 -0.014205 -0.009901)
 21:    341.52   0.000936    4.73  0.000855  ( 0.017285 -0.019640 -0.013060)
 22:    392.01   0.000263    1.33  0.000209  (-0.008421  0.002088 -0.011583)
 23:    397.26   0.002141   10.82  0.001682  (-0.040904 -0.002925 -0.000273)
 24:    416.91   0.000526    2.66  0.000394  (-0.019280  0.001891  0.004314)
 25:    440.19   0.000196    0.99  0.000139  (-0.007134  0.003795 -0.008572)
 26:    486.47   0.001179    5.96  0.000757  (-0.026271 -0.000453 -0.008138)
 27:    541.52   0.005543   28.01  0.003194  ( 0.052219  0.012243 -0.017823)
 28:    571.32   0.002734   13.82  0.001494  ( 0.014236  0.029130  0.021033)
 29:    580.94   0.003295   16.65  0.001770  ( 0.010680 -0.030146 -0.027332)
 30:    591.24   0.000780    3.94  0.000412  ( 0.009303  0.007237 -0.016511)
 31:    632.60   0.001079    5.45  0.000532  ( 0.019715  0.007973  0.008943)
 32:    639.83   0.001699    8.59  0.000829  ( 0.022076  0.010604 -0.015128)
 33:    695.40   0.002535   12.81  0.001138  (-0.027582  0.008231 -0.017580)
 34:    801.38   0.000733    3.71  0.000286  (-0.005771  0.007865 -0.013801)
 35:    828.61   0.000187    0.94  0.000070  (-0.007306  0.003611  0.001969)
 36:    859.10   0.001799    9.09  0.000653  ( 0.019579 -0.013306  0.009649)
 37:    964.90   0.000623    3.15  0.000202  (-0.001148  0.007513  0.011992)
 38:    990.61   0.001806    9.13  0.000569  (-0.021760 -0.004532  0.008649)
 39:   1006.05   0.010338   52.24  0.003207  (-0.044733  0.024590  0.024514)
 40:   1013.61   0.004684   23.67  0.001442  ( 0.001750 -0.036562 -0.010109)
 41:   1067.21   0.001612    8.14  0.000471  ( 0.010089  0.008318  0.017328)
 42:   1091.08   0.001318    6.66  0.000377  ( 0.007920 -0.014372  0.010371)
 43:   1096.63   0.001335    6.75  0.000380  ( 0.017582 -0.002598 -0.007996)
 44:   1117.86   0.001790    9.05  0.000500  ( 0.021927 -0.002777 -0.003361)
 45:   1136.52   0.000442    2.23  0.000121  (-0.001868 -0.007203  0.008126)
 46:   1164.57   0.035756  180.70  0.009581  (-0.092422 -0.012611  0.029673)
 47:   1185.72   0.001967    9.94  0.000518  ( 0.021826  0.001788  0.006178)
 48:   1246.23   0.005189   26.22  0.001299  (-0.033506  0.005625  0.012044)
 49:   1264.89   0.039545  199.84  0.009756  ( 0.056195 -0.074016 -0.033467)
 50:   1295.67   0.007959   40.22  0.001917  (-0.041538  0.002963 -0.013522)
 51:   1314.23   0.013357   67.50  0.003172  ( 0.011795  0.051930  0.018322)
 52:   1336.67   0.011663   58.94  0.002723  ( 0.049272  0.014557 -0.009127)
 53:   1377.70   0.000405    2.05  0.000092  (-0.000476  0.001783  0.009403)
 54:   1409.80   0.003983   20.13  0.000882  (-0.008261 -0.023811 -0.015698)
 55:   1412.94   0.011299   57.10  0.002496  ( 0.037988  0.030909  0.009854)
 56:   1447.83   0.014686   74.21  0.003165  ( 0.047988  0.012600 -0.026527)
 57:   1458.54   0.020934  105.79  0.004479  ( 0.064510 -0.013348 -0.011800)
 58:   1466.30   0.023023  116.35  0.004900  ( 0.024841 -0.058533 -0.029270)
 59:   1493.01   0.005450   27.54  0.001139  (-0.023753 -0.012102  0.020698)
 60:   1497.78   0.004065   20.54  0.000847  ( 0.010722 -0.026889  0.002983)
 61:   1501.49   0.003012   15.22  0.000626  (-0.000404  0.007524 -0.023857)
 62:   1521.90   0.002328   11.77  0.000477  (-0.017702  0.009142 -0.008972)
 63:   1522.32   0.001670    8.44  0.000342  ( 0.001300 -0.004177  0.017976)
 64:   1525.57   0.001318    6.66  0.000270  (-0.009529  0.013264 -0.001708)
 65:   1528.96   0.002462   12.44  0.000502  ( 0.011038 -0.019235  0.003252)
 66:   1532.18   0.002883   14.57  0.000587  ( 0.001778  0.010520  0.021756)
 67:   1563.27   0.007721   39.02  0.001541  ( 0.037951  0.003230 -0.009523)
 68:   1646.22   0.021370  108.00  0.004051  ( 0.015251  0.058216  0.020722)
 69:   1756.36   0.062250  314.59  0.011060  ( 0.053041  0.061932 -0.066419)
 70:   1773.12   0.036612  185.02  0.006444  ( 0.001440  0.078200  0.018062)
 71:   1811.84   0.056432  285.19  0.009720  ( 0.013558 -0.090794  0.035947)
 72:   3018.47   0.006402   32.35  0.000662  (-0.017107  0.004670  0.018640)
 73:   3024.65   0.006041   30.53  0.000623  ( 0.004717 -0.020993  0.012660)
 74:   3031.84   0.016796   84.88  0.001729  (-0.038769 -0.014812  0.002518)
 75:   3058.32   0.000973    4.92  0.000099  (-0.005206 -0.005113  0.006783)
 76:   3080.29   0.008466   42.78  0.000858  (-0.006281  0.020285  0.020167)
 77:   3089.27   0.004585   23.17  0.000463  (-0.009822  0.008527  0.017147)
 78:   3094.71   0.004844   24.48  0.000488  ( 0.013590  0.017058 -0.003581)
 79:   3125.00   0.001367    6.91  0.000137  ( 0.004810 -0.002986  0.010220)
 80:   3134.28   0.005311   26.84  0.000529  ( 0.020708 -0.009424 -0.003333)
 81:   3134.65   0.000637    3.22  0.000063  ( 0.004321  0.003645  0.005610)
 82:   3176.10   0.001540    7.78  0.000151  (-0.004279  0.011221  0.002669)
 83:   3176.80   0.001859    9.39  0.000183  (-0.011737  0.000197 -0.006695)
 84:   3189.90   0.000293    1.48  0.000029  (-0.003192  0.002866 -0.003207)
 85:   3584.93   0.007419   37.49  0.000646  (-0.004069 -0.024019 -0.007236)
 86:   3711.21   0.006650   33.61  0.000559  (-0.012672  0.004386 -0.019478)

--------------------------
THERMOCHEMISTRY AT 298.15K
--------------------------

Temperature         ... 298.15 K
Pressure            ... 1.00 atm
Total Mass          ... 201.23 AMU

Throughout the following assumptions are being made:
  (1) The electronic state is orbitally nondegenerate
  (2) There are no thermally accessible electronically excited states
  (3) Hindered rotations indicated by low frequency modes are not
      treated as such but are treated as vibrations and this may
      cause some error
  (4) All equations used are the standard statistical mechanics
      equations for an ideal gas
  (5) All vibrations are strictly harmonic

freq.      28.47  E(vib)   ...       0.55
freq.      33.19  E(vib)   ...       0.55
freq.      41.36  E(vib)   ...       0.54
freq.      59.93  E(vib)   ...       0.51
freq.      73.88  E(vib)   ...       0.49
freq.      89.41  E(vib)   ...       0.47
freq.      98.17  E(vib)   ...       0.46
freq.     130.09  E(vib)   ...       0.43
freq.     142.51  E(vib)   ...       0.41
freq.     178.47  E(vib)   ...       0.37
freq.     199.81  E(vib)   ...       0.35
freq.     204.87  E(vib)   ...       0.35
freq.     221.98  E(vib)   ...       0.33
freq.     261.08  E(vib)   ...       0.30
freq.     298.90  E(vib)   ...       0.26
freq.     341.52  E(vib)   ...       0.23
freq.     392.01  E(vib)   ...       0.20
freq.     397.26  E(vib)   ...       0.20
freq.     416.91  E(vib)   ...       0.18
freq.     440.19  E(vib)   ...       0.17
freq.     486.47  E(vib)   ...       0.15
freq.     541.52  E(vib)   ...       0.12
freq.     571.32  E(vib)   ...       0.11
freq.     580.94  E(vib)   ...       0.11
freq.     591.24  E(vib)   ...       0.10
freq.     632.60  E(vib)   ...       0.09
freq.     639.83  E(vib)   ...       0.09
freq.     695.40  E(vib)   ...       0.07
freq.     801.38  E(vib)   ...       0.05
freq.     828.61  E(vib)   ...       0.04
freq.     859.10  E(vib)   ...       0.04
freq.     964.90  E(vib)   ...       0.03
freq.     990.61  E(vib)   ...       0.02
freq.    1006.05  E(vib)   ...       0.02
freq.    1013.61  E(vib)   ...       0.02
freq.    1067.21  E(vib)   ...       0.02
freq.    1091.08  E(vib)   ...       0.02
freq.    1096.63  E(vib)   ...       0.02
freq.    1117.86  E(vib)   ...       0.01
freq.    1136.52  E(vib)   ...       0.01
freq.    1164.57  E(vib)   ...       0.01
freq.    1185.72  E(vib)   ...       0.01
freq.    1246.23  E(vib)   ...       0.01
freq.    1264.89  E(vib)   ...       0.01
freq.    1295.67  E(vib)   ...       0.01
freq.    1314.23  E(vib)   ...       0.01
freq.    1336.67  E(vib)   ...       0.01
freq.    1377.70  E(vib)   ...       0.01
freq.    1409.80  E(vib)   ...       0.00
freq.    1412.94  E(vib)   ...       0.00
freq.    1447.83  E(vib)   ...       0.00
freq.    1458.54  E(vib)   ...       0.00
freq.    1466.30  E(vib)   ...       0.00
freq.    1493.01  E(vib)   ...       0.00
freq.    1497.78  E(vib)   ...       0.00
freq.    1501.49  E(vib)   ...       0.00
freq.    1521.90  E(vib)   ...       0.00
freq.    1522.32  E(vib)   ...       0.00
freq.    1525.57  E(vib)   ...       0.00
freq.    1528.96  E(vib)   ...       0.00
freq.    1532.18  E(vib)   ...       0.00
freq.    1563.27  E(vib)   ...       0.00
freq.    1646.22  E(vib)   ...       0.00
freq.    1756.36  E(vib)   ...       0.00
freq.    1773.12  E(vib)   ...       0.00
freq.    1811.84  E(vib)   ...       0.00
freq.    3018.47  E(vib)   ...       0.00
freq.    3024.65  E(vib)   ...       0.00
freq.    3031.84  E(vib)   ...       0.00
freq.    3058.32  E(vib)   ...       0.00
freq.    3080.29  E(vib)   ...       0.00
freq.    3089.27  E(vib)   ...       0.00
freq.    3094.71  E(vib)   ...       0.00
freq.    3125.00  E(vib)   ...       0.00
freq.    3134.28  E(vib)   ...       0.00
freq.    3134.65  E(vib)   ...       0.00
freq.    3176.10  E(vib)   ...       0.00
freq.    3176.80  E(vib)   ...       0.00
freq.    3189.90  E(vib)   ...       0.00
freq.    3584.93  E(vib)   ...       0.00
freq.    3711.21  E(vib)   ...       0.00

------------
INNER ENERGY
------------

The inner energy is: U= E(el) + E(ZPE) + E(vib) + E(rot) + E(trans)
    E(el)   - is the total energy from the electronic structure calculation
              = E(kin-el) + E(nuc-el) + E(el-el) + E(nuc-nuc)
    E(ZPE)  - the the zero temperature vibrational energy from the frequency calculation
    E(vib)  - the the finite temperature correction to E(ZPE) due to population
              of excited vibrational states
    E(rot)  - is the rotational thermal energy
    E(trans)- is the translational thermal energy

Summary of contributions to the inner energy U:
Electronic energy                ...   -703.47625933 Eh
Zero point energy                ...      0.24250742 Eh     152.18 kcal/mol
Thermal vibrational correction   ...      0.01373686 Eh       8.62 kcal/mol
Thermal rotational correction    ...      0.00141627 Eh       0.89 kcal/mol
Thermal translational correction ...      0.00141627 Eh       0.89 kcal/mol
-----------------------------------------------------------------------
Total thermal energy                   -703.21718251 Eh

Summary of corrections to the electronic energy:
(perhaps to be used in another calculation)
Total thermal correction                  0.01656941 Eh      10.40 kcal/mol
Non-thermal (ZPE) correction              0.24250742 Eh     152.18 kcal/mol
-----------------------------------------------------------------------
Total correction                          0.25907683 Eh     162.57 kcal/mol

--------
ENTHALPY
--------

The enthalpy is H = U + kB*T
                kB is Boltzmann's constant
Total free energy                 ...   -703.21718251 Eh
Thermal Enthalpy correction       ...      0.00094421 Eh       0.59 kcal/mol
-----------------------------------------------------------------------
Total Enthalpy                    ...   -703.21623830 Eh

Note: Only C1 symmetry has been detected, increase convergence thresholds
      if your molecule has a higher symmetry. Symmetry factor of 1.0 is
      used for the rotational entropy correction.

Note: Rotational entropy computed according to Herzberg
Infrared and Raman Spectra, Chapter V,1, Van Nostrand Reinhold, 1945
Point Group:  C1, Symmetry Number:   1
Rotational constants in cm-1:     0.030790     0.014152     0.011758

Vibrational entropy computed according to the QRRHO of S. Grimme
Chem.Eur.J. 2012 18 9955

-------
ENTROPY
-------

The entropy contributions are T*S = T*(S(el)+S(vib)+S(rot)+S(trans))

                             ****ORCA TERMINATED NORMALLY****
TOTAL RUN TIME: 0 days 0 hours 36 minutes 28 seconds 117 msec
