                         Program Version 5.0.4 -  RELEASE  -
|  1> ! OPT FREQ B3LYP 6-31G(d) D4 AUTOAUX
|  2>
|  3> %PAL NPROCS 4 END
|  4>
|  5> %maxcore 3375
|  6>
|  7> *xyzfile 0 1 /users/fjb15167/WWenergy/structures/Nw.xyz
|  8>
|  9>                          ****END OF INPUT****
 Total Charge           Charge          ....    0
 Multiplicity           Mult            ....    1
 Number of Electrons    NEL             ....  146
Dispersion correction           -0.087923714
FINAL SINGLE POINT ENERGY      -897.291911776936
Dispersion correction            ... Starting D4
Dispersion correction           -0.086889274
FINAL SINGLE POINT ENERGY      -897.292472373839
Dispersion correction            ... Starting D4
Dispersion correction           -0.088509273
FINAL SINGLE POINT ENERGY      -897.292355770149
Dispersion correction            ... Starting D4
FINAL SINGLE POINT ENERGY      -897.292504053567
FINAL SINGLE POINT ENERGY      -897.292638289880
FINAL SINGLE POINT ENERGY      -897.292753099400
FINAL SINGLE POINT ENERGY      -897.292893217470
FINAL SINGLE POINT ENERGY      -897.292933873438
FINAL SINGLE POINT ENERGY      -897.292962819245
Dispersion correction           -0.087349336
FINAL SINGLE POINT ENERGY      -897.292986035787
Dispersion correction            ... Starting D4
Dispersion correction           -0.087247914
FINAL SINGLE POINT ENERGY      -897.292989442243
Dispersion correction            ... Starting D4
                    ***********************HURRAY********************

CARTESIAN COORDINATES (ANGSTROEM)
---------------------------------
  C      3.258514    0.140337   -0.220988
  H      3.930401    1.031251   -2.095080
  H      2.907321    2.104477   -1.129340
  H      4.570637    1.756678   -0.603391
  O      3.933927   -0.190151    0.753428
  C      3.681380    1.331816   -1.070764
  N      2.110713   -0.534159   -0.566029
  C      1.798492   -1.780048    0.133212
  H      1.776989   -2.603198   -0.589090
  H      2.610476   -1.957993    0.841258
  C      1.310139   -0.244882   -1.766146
  H      1.391969   -1.099315   -2.453867
  H      1.753456    0.613453   -2.272454
  C     -0.133960    0.004147   -1.461186
  C     -1.169753   -0.846247   -1.748320
  H     -1.147925   -1.811064   -2.234209
  N     -2.348251   -0.336365   -1.253284
  H     -3.232834   -0.819330   -1.261159
  C     -2.091111    0.854321   -0.602855
  C     -0.696888    1.106086   -0.724285
  C     -0.168824    2.268406   -0.140445
  H      0.892060    2.490033   -0.211493
  C     -1.019620    3.130964    0.541627
  H     -0.618387    4.031527    0.998397
  C     -2.951676    1.716851    0.080064
  H     -4.014422    1.504717    0.163963
  C     -2.396870    2.856478    0.653661
  H     -3.037628    3.547314    1.194545
  C      0.427624   -1.845314    0.830035
  O     -0.368927   -2.720922    0.489843
  N      0.151045   -0.936447    1.808746
  C      1.081830    0.041608    2.348125
  H      0.817039    1.053858    2.016662
  H      1.027472    0.015140    3.444467
  H      2.110015   -0.170038    2.058277
  C     -1.190717   -0.895300    2.368630
  H     -1.625799    0.102056    2.228312
  H     -1.799693   -1.641035    1.859389
  H     -1.165217   -1.119710    3.443745

 Multiplicity           Mult            ....    1
 Number of Electrons    NEL             ....  146
 Basis Dimension        Dim             ....  318

ORBITAL ENERGIES
----------------

  NO   OCC          E(Eh)            E(eV)
   0   2.0000     -19.104653      -519.8640
   1   2.0000     -19.088825      -519.4333
   2   2.0000     -14.373611      -391.1258
   3   2.0000     -14.358723      -390.7207
   4   2.0000     -14.344986      -390.3469
   5   2.0000     -10.281093      -279.7628
   6   2.0000     -10.265295      -279.3329
   7   2.0000     -10.223992      -278.2090
   8   2.0000     -10.213845      -277.9329
   9   2.0000     -10.213306      -277.9182
  10   2.0000     -10.205378      -277.7024
  11   2.0000     -10.190202      -277.2895
  12   2.0000     -10.187950      -277.2282
  13   2.0000     -10.183665      -277.1116
  14   2.0000     -10.182749      -277.0867
  15   2.0000     -10.179888      -277.0088
  16   2.0000     -10.178499      -276.9710
  17   2.0000     -10.178320      -276.9662
  18   2.0000     -10.174754      -276.8691
  19   2.0000     -10.173447      -276.8336
  20   2.0000      -1.028980       -28.0000
  21   2.0000      -1.012557       -27.5531
  22   2.0000      -0.979819       -26.6622
  23   2.0000      -0.930747       -25.3269
  24   2.0000      -0.914971       -24.8976
  25   2.0000      -0.838224       -22.8092
  26   2.0000      -0.795298       -21.6412
  27   2.0000      -0.756608       -20.5883
  28   2.0000      -0.737632       -20.0720
  29   2.0000      -0.731545       -19.9063
  30   2.0000      -0.714520       -19.4431
  31   2.0000      -0.701957       -19.1012
  32   2.0000      -0.690253       -18.7827
  33   2.0000      -0.663096       -18.0438
  34   2.0000      -0.622652       -16.9432
  35   2.0000      -0.593219       -16.1423
  36   2.0000      -0.571728       -15.5575
  37   2.0000      -0.550557       -14.9814
  38   2.0000      -0.540159       -14.6985
  39   2.0000      -0.529678       -14.4133
  40   2.0000      -0.507437       -13.8081
  41   2.0000      -0.490653       -13.3514
  42   2.0000      -0.479733       -13.0542
  43   2.0000      -0.472690       -12.8626
  44   2.0000      -0.461368       -12.5545
  45   2.0000      -0.457584       -12.4515
  46   2.0000      -0.455447       -12.3933
  47   2.0000      -0.440090       -11.9755
  48   2.0000      -0.436111       -11.8672
  49   2.0000      -0.430790       -11.7224
  50   2.0000      -0.420010       -11.4290
  51   2.0000      -0.417607       -11.3637
  52   2.0000      -0.407540       -11.0897
  53   2.0000      -0.399145       -10.8613
  54   2.0000      -0.395894       -10.7728
  55   2.0000      -0.388748       -10.5784
  56   2.0000      -0.388043       -10.5592
  57   2.0000      -0.385825       -10.4988
  58   2.0000      -0.380153       -10.3445
  59   2.0000      -0.379160       -10.3175
  60   2.0000      -0.366209        -9.9650
  61   2.0000      -0.353920        -9.6306
  62   2.0000      -0.350738        -9.5441
  63   2.0000      -0.343202        -9.3390
  64   2.0000      -0.335621        -9.1327
  65   2.0000      -0.328905        -8.9500
  66   2.0000      -0.273824        -7.4511
  67   2.0000      -0.250242        -6.8094
  68   2.0000      -0.246257        -6.7010
  69   2.0000      -0.230112        -6.2617
  70   2.0000      -0.225462        -6.1351
  71   2.0000      -0.215713        -5.8699
  72   2.0000      -0.203133        -5.5275
  73   0.0000      -0.010106        -0.2750
  74   0.0000       0.023155         0.6301
  75   0.0000       0.025660         0.6982
  76   0.0000       0.033768         0.9189
  77   0.0000       0.067759         1.8438

MULLIKEN ATOMIC CHARGES
-----------------------
   0 C :    0.536131
   1 H :    0.173075
   2 H :    0.177906
   3 H :    0.189158
   4 O :   -0.477263
   5 C :   -0.564325
   6 N :   -0.364083
   7 C :   -0.259345
   8 H :    0.164862
   9 H :    0.205493
  10 C :   -0.244999
  11 H :    0.151715
  12 H :    0.164174
  13 C :    0.042394
  14 C :    0.030812
  15 H :    0.163426
  16 N :   -0.641632
  17 H :    0.331713
  18 C :    0.287405
  19 C :    0.099297
  20 C :   -0.217175
  21 H :    0.125868
  22 C :   -0.141835
  23 H :    0.122280
  24 C :   -0.169034
  25 H :    0.124492
  26 C :   -0.151451
  27 H :    0.124473
  28 C :    0.542894
  29 O :   -0.500758
  30 N :   -0.357670
  31 C :   -0.352790
  32 H :    0.161336
  33 H :    0.146312
  34 H :    0.205484
  35 C :   -0.324971
  36 H :    0.164683
  37 H :    0.187167
  38 H :    0.144781
Sum of atomic charges:    0.0000000

LOEWDIN ATOMIC CHARGES
----------------------
   0 C :    0.109018
   1 H :    0.144006
   2 H :    0.139773
   3 H :    0.153608
   4 O :   -0.286525
   5 C :   -0.392648
   6 N :   -0.079868
   7 C :   -0.181444
   8 H :    0.138193
   9 H :    0.162918
  10 C :   -0.145870
  11 H :    0.128259
  12 H :    0.139464
  13 C :   -0.101085
  14 C :   -0.074982
  15 H :    0.143795
  16 N :   -0.129221
  17 H :    0.261527
  18 C :    0.017273
  19 C :   -0.033615
  20 C :   -0.140770
  21 H :    0.127155
  22 C :   -0.150264
  23 H :    0.129385
  24 C :   -0.158537
  25 H :    0.130698
  26 C :   -0.140525
  27 H :    0.130397
  28 C :    0.097124
  29 O :   -0.298190
  30 N :   -0.072163
  31 C :   -0.290027
  32 H :    0.127895
  33 H :    0.122890
  34 H :    0.152655
  35 C :   -0.280200
  36 H :    0.130462
  37 H :    0.149270
  38 H :    0.120173

  Mayer bond orders larger than 0.100000
B(  0-C ,  4-O ) :   1.7797 B(  0-C ,  5-C ) :   0.9769 B(  0-C ,  6-N ) :   1.1310
B(  1-H ,  5-C ) :   0.9289 B(  2-H ,  5-C ) :   0.9200 B(  3-H ,  5-C ) :   0.9385
B(  6-N ,  7-C ) :   0.9436 B(  6-N , 10-C ) :   0.9499 B(  7-C ,  8-H ) :   0.9205
B(  7-C ,  9-H ) :   0.8915 B(  7-C , 28-C ) :   0.9321 B( 10-C , 11-H ) :   0.9231
B( 10-C , 12-H ) :   0.9141 B( 10-C , 13-C ) :   0.9853 B( 13-C , 14-C ) :   1.5556
B( 13-C , 19-C ) :   1.2536 B( 14-C , 15-H ) :   0.9207 B( 14-C , 16-N ) :   1.0967
B( 16-N , 17-H ) :   0.8400 B( 16-N , 18-C ) :   0.9991 B( 18-C , 19-C ) :   1.2921
B( 18-C , 24-C ) :   1.3603 B( 19-C , 20-C ) :   1.3592 B( 20-C , 21-H ) :   0.9145
B( 20-C , 22-C ) :   1.4635 B( 22-C , 23-H ) :   0.9318 B( 22-C , 26-C ) :   1.3885
B( 24-C , 25-H ) :   0.9239 B( 24-C , 26-C ) :   1.4694 B( 26-C , 27-H ) :   0.9309
B( 28-C , 29-O ) :   1.7795 B( 28-C , 30-N ) :   1.1674 B( 30-N , 31-C ) :   0.9598
B( 30-N , 35-C ) :   0.9600 B( 31-C , 32-H ) :   0.9182 B( 31-C , 33-H ) :   0.9383
B( 31-C , 34-H ) :   0.8969 B( 35-C , 36-H ) :   0.9290 B( 35-C , 37-H ) :   0.9229
B( 35-C , 38-H ) :   0.9404

Dispersion correction           -0.087257623
FINAL SINGLE POINT ENERGY      -897.292991599472

DIPOLE MOMENT
-------------
                                X             Y             Z
Electronic contribution:     -3.82386      -3.93998      -4.82280
Nuclear contribution   :      2.84076       4.62180       4.04906
                        -----------------------------------------
Total Dipole Moment    :     -0.98310       0.68182      -0.77374
                        -----------------------------------------
Magnitude (a.u.)       :      1.42479
Magnitude (Debye)      :      3.62153

Dispersion correction in the Hessian             ... Starting D4

VIBRATIONAL FREQUENCIES
-----------------------

Scaling factor for frequencies =  1.000000000  (already applied!)

   0:         0.00 cm**-1
   1:         0.00 cm**-1
   2:         0.00 cm**-1
   3:         0.00 cm**-1
   4:         0.00 cm**-1
   5:         0.00 cm**-1
   6:        24.06 cm**-1
   7:        43.94 cm**-1
   8:        62.93 cm**-1
   9:        87.33 cm**-1
  10:        92.11 cm**-1
  11:       117.80 cm**-1
  12:       130.47 cm**-1
  13:       140.05 cm**-1
  14:       167.97 cm**-1
  15:       174.03 cm**-1
  16:       188.18 cm**-1
  17:       198.39 cm**-1
  18:       216.94 cm**-1
  19:       234.89 cm**-1
  20:       250.37 cm**-1
  21:       292.40 cm**-1
  22:       310.06 cm**-1
  23:       334.41 cm**-1
  24:       367.00 cm**-1
  25:       382.43 cm**-1
  26:       411.80 cm**-1
  27:       420.00 cm**-1
  28:       436.12 cm**-1
  29:       442.68 cm**-1
  30:       464.52 cm**-1
  31:       500.78 cm**-1
  32:       549.24 cm**-1
  33:       576.59 cm**-1
  34:       587.16 cm**-1
  35:       594.94 cm**-1
  36:       598.29 cm**-1
  37:       614.17 cm**-1
  38:       655.69 cm**-1
  39:       691.59 cm**-1
  40:       747.74 cm**-1
  41:       754.14 cm**-1
  42:       758.35 cm**-1
  43:       776.50 cm**-1
  44:       782.20 cm**-1
  45:       802.18 cm**-1
  46:       836.76 cm**-1
  47:       859.11 cm**-1
  48:       891.60 cm**-1
  49:       916.19 cm**-1
  50:       947.45 cm**-1
  51:       962.67 cm**-1
  52:       970.62 cm**-1
  53:      1005.40 cm**-1
  54:      1010.98 cm**-1
  55:      1045.11 cm**-1
  56:      1062.19 cm**-1
  57:      1090.51 cm**-1
  58:      1099.85 cm**-1
  59:      1103.97 cm**-1
  60:      1127.24 cm**-1
  61:      1145.46 cm**-1
  62:      1159.67 cm**-1
  63:      1178.70 cm**-1
  64:      1187.99 cm**-1
  65:      1191.64 cm**-1
  66:      1227.14 cm**-1
  67:      1255.89 cm**-1
  68:      1272.38 cm**-1
  69:      1294.07 cm**-1
  70:      1296.68 cm**-1
  71:      1302.22 cm**-1
  72:      1344.76 cm**-1
  73:      1374.45 cm**-1
  74:      1389.92 cm**-1
  75:      1396.10 cm**-1
  76:      1413.85 cm**-1
  77:      1417.63 cm**-1
  78:      1449.08 cm**-1
  79:      1461.77 cm**-1
  80:      1468.31 cm**-1
  81:      1471.39 cm**-1
  82:      1495.73 cm**-1
  83:      1499.11 cm**-1
  84:      1502.87 cm**-1
  85:      1511.17 cm**-1
  86:      1513.70 cm**-1
  87:      1525.74 cm**-1
  88:      1527.96 cm**-1
  89:      1537.70 cm**-1
  90:      1541.48 cm**-1
  91:      1542.03 cm**-1
  92:      1569.81 cm**-1
  93:      1614.22 cm**-1
  94:      1637.70 cm**-1
  95:      1683.30 cm**-1
  96:      1742.90 cm**-1
  97:      1748.46 cm**-1
  98:      3023.98 cm**-1
  99:      3030.18 cm**-1
 100:      3037.30 cm**-1
 101:      3059.96 cm**-1
 102:      3073.19 cm**-1
 103:      3082.36 cm**-1
 104:      3086.84 cm**-1
 105:      3121.29 cm**-1
 106:      3143.99 cm**-1
 107:      3144.90 cm**-1
 108:      3174.05 cm**-1
 109:      3183.40 cm**-1
 110:      3186.59 cm**-1
 111:      3189.01 cm**-1
 112:      3191.22 cm**-1
 113:      3203.01 cm**-1
 114:      3212.30 cm**-1
 115:      3284.30 cm**-1
 116:      3670.05 cm**-1

IR SPECTRUM
-----------

 Mode   freq       eps      Int      T**2         TX        TY        TZ
       cm**-1   L/(mol*cm) km/mol    a.u.
----------------------------------------------------------------------------
  6:     24.06   0.000112    0.56  0.001447  (-0.033755 -0.007837  0.015678)
  7:     43.94   0.000226    1.14  0.001602  (-0.000146 -0.034023 -0.021092)
  8:     62.93   0.000158    0.80  0.000786  ( 0.021709 -0.015247  0.009054)
  9:     87.33   0.000383    1.93  0.001368  ( 0.022699 -0.025170  0.014806)
 10:     92.11   0.000012    0.06  0.000040  (-0.000886 -0.004699 -0.004089)
 11:    117.80   0.001283    6.48  0.003398  ( 0.026403 -0.047745  0.020517)
 12:    130.47   0.001610    8.14  0.003851  ( 0.030824  0.012911 -0.052288)
 13:    140.05   0.000167    0.85  0.000373  (-0.006276  0.015754  0.009227)
 14:    167.97   0.000247    1.25  0.000458  ( 0.001403 -0.010730  0.018475)
 15:    174.03   0.000235    1.19  0.000422  ( 0.007909  0.018598 -0.003680)
 16:    188.18   0.000067    0.34  0.000112  (-0.001492  0.000336 -0.010464)
 17:    198.39   0.000189    0.96  0.000298  ( 0.010459  0.005770 -0.012449)
 18:    216.94   0.000375    1.89  0.000539  ( 0.016773 -0.012446  0.010128)
 19:    234.89   0.002314   11.69  0.003074  ( 0.013295 -0.026289  0.046968)
 20:    250.37   0.000754    3.81  0.000940  (-0.007317  0.023051 -0.018843)
 21:    292.40   0.000645    3.26  0.000688  ( 0.001269  0.014212 -0.022017)
 22:    310.06   0.000710    3.59  0.000714  ( 0.013008  0.007030 -0.022260)
 23:    334.41   0.000557    2.81  0.000520  (-0.011597  0.019381  0.003072)
 24:    367.00   0.006091   30.78  0.005179  (-0.048562  0.013881 -0.051268)
 25:    382.43   0.002491   12.59  0.002033  ( 0.005253 -0.011791 -0.043201)
 26:    411.80   0.010085   50.97  0.007643  (-0.048920  0.033390 -0.064302)
 27:    420.00   0.007106   35.91  0.005279  ( 0.018021 -0.027328  0.064869)
 28:    436.12   0.000180    0.91  0.000129  (-0.004978 -0.008461  0.005686)
 29:    442.68   0.000587    2.97  0.000414  ( 0.020064 -0.002322  0.002420)
 30:    464.52   0.000669    3.38  0.000449  ( 0.018247 -0.000263 -0.010790)
 31:    500.78   0.004251   21.48  0.002649  ( 0.007630  0.036216 -0.035769)
 32:    549.24   0.000359    1.81  0.000204  (-0.012842  0.006190  0.000828)
 33:    576.59   0.002616   13.22  0.001416  ( 0.034346 -0.002857 -0.015106)
 34:    587.16   0.000782    3.95  0.000416  (-0.006840  0.014352 -0.012770)
 35:    594.94   0.003361   16.98  0.001763  ( 0.040876 -0.008477  0.004469)
 36:    598.29   0.000106    0.53  0.000055  ( 0.005131  0.001901  0.005017)
 37:    614.17   0.001590    8.04  0.000808  ( 0.006184  0.020032  0.019194)
 38:    655.69   0.001284    6.49  0.000611  (-0.000282  0.019263  0.015495)
 39:    691.59   0.000328    1.66  0.000148  (-0.007218  0.001164 -0.009726)
 40:    747.74   0.000915    4.62  0.000382  (-0.008533  0.014602 -0.009782)
 41:    754.14   0.010829   54.73  0.004481  ( 0.014554 -0.035062  0.055137)
 42:    758.35   0.002922   14.77  0.001203  (-0.022709  0.006621  0.025359)
 43:    776.50   0.000702    3.55  0.000282  ( 0.005435 -0.015058  0.005098)
 44:    782.20   0.000595    3.01  0.000237  (-0.003341  0.004918  0.014212)
 45:    802.18   0.003800   19.20  0.001478  (-0.011072 -0.001958 -0.036766)
 46:    836.76   0.001969    9.95  0.000734  ( 0.013854 -0.012838 -0.019435)
 47:    859.11   0.000354    1.79  0.000128  (-0.007625  0.001052  0.008319)
 48:    891.60   0.000221    1.12  0.000078  (-0.005379  0.004878  0.004979)
 49:    916.19   0.000220    1.11  0.000075  ( 0.000664  0.004106 -0.007599)
 50:    947.45   0.001488    7.52  0.000490  (-0.018919  0.001369 -0.011415)
 51:    962.67   0.000016    0.08  0.000005  (-0.001860  0.000507 -0.001196)
 52:    970.62   0.002519   12.73  0.000810  (-0.023229 -0.016016  0.003726)
 53:   1005.40   0.007309   36.94  0.002269  ( 0.047003 -0.007619  0.001157)
 54:   1010.98   0.002586   13.07  0.000798  ( 0.000349 -0.013971 -0.024557)
 55:   1045.11   0.001020    5.15  0.000304  (-0.009116  0.011916  0.008907)
 56:   1062.19   0.000732    3.70  0.000215  ( 0.011811 -0.005129 -0.007010)
 57:   1090.51   0.002721   13.75  0.000779  (-0.021067 -0.016803 -0.007241)
 58:   1099.85   0.000487    2.46  0.000138  (-0.009719 -0.005229 -0.004057)
 59:   1103.97   0.001325    6.70  0.000375  (-0.005513  0.014805  0.011183)
 60:   1127.24   0.005637   28.49  0.001561  (-0.031866 -0.020152 -0.011791)
 61:   1145.46   0.000145    0.73  0.000039  ( 0.001875  0.005481 -0.002426)
 62:   1159.67   0.001189    6.01  0.000320  (-0.005053 -0.004434 -0.016578)
 63:   1178.70   0.005466   27.62  0.001447  (-0.001740 -0.014230 -0.035237)
 64:   1187.99   0.000416    2.10  0.000109  ( 0.001365 -0.004336 -0.009418)
 65:   1191.64   0.000172    0.87  0.000045  ( 0.001879  0.004157  0.004925)
 66:   1227.14   0.004493   22.70  0.001142  (-0.021146  0.026100  0.003761)
 67:   1255.89   0.004982   25.17  0.001238  ( 0.034070  0.006835  0.005509)
 68:   1272.38   0.001054    5.33  0.000258  ( 0.003974  0.013593  0.007610)
 69:   1294.07   0.018149   91.72  0.004377  ( 0.057177  0.033249 -0.001410)
 70:   1296.68   0.009270   46.85  0.002231  ( 0.041938 -0.000716 -0.021717)
 71:   1302.22   0.009709   49.06  0.002327  ( 0.024541  0.036629 -0.019561)
 72:   1344.76   0.000177    0.89  0.000041  (-0.000258 -0.006305 -0.001097)
 73:   1374.45   0.000276    1.40  0.000063  ( 0.005928  0.003341  0.004053)
 74:   1389.92   0.004869   24.61  0.001093  ( 0.026068 -0.014707 -0.014047)
 75:   1396.10   0.005007   25.30  0.001119  (-0.022330 -0.023192 -0.009091)
 76:   1413.85   0.004746   23.98  0.001048  ( 0.016242 -0.024911  0.012774)
 77:   1417.63   0.002162   10.93  0.000476  ( 0.021671 -0.002251  0.001102)
 78:   1449.08   0.006122   30.94  0.001318  (-0.018573  0.015547  0.027050)
 79:   1461.77   0.019293   97.50  0.004119  ( 0.058272  0.002629 -0.026760)
 80:   1468.31   0.022797  115.21  0.004845  (-0.060308 -0.030865 -0.015982)
 81:   1471.39   0.007673   38.78  0.001627  (-0.023747  0.026068  0.019593)
 82:   1495.73   0.001130    5.71  0.000236  (-0.005297  0.013908 -0.003771)
 83:   1499.11   0.002116   10.70  0.000441  ( 0.005294 -0.000753 -0.020297)
 84:   1502.87   0.004445   22.46  0.000923  ( 0.008374  0.026637  0.011967)
 85:   1511.17   0.001023    5.17  0.000211  ( 0.013391  0.001582 -0.005430)
 86:   1513.70   0.003176   16.05  0.000655  ( 0.002184 -0.025463  0.001267)
 87:   1525.74   0.001917    9.69  0.000392  ( 0.002788 -0.019255  0.003674)
 88:   1527.96   0.000124    0.63  0.000025  ( 0.000990 -0.000756  0.004878)
 89:   1537.70   0.001807    9.13  0.000367  ( 0.009820 -0.003426  0.016078)
 90:   1541.48   0.001245    6.29  0.000252  (-0.000522 -0.002465  0.015677)
 91:   1542.03   0.001943    9.82  0.000393  (-0.000828 -0.013981  0.014036)
 92:   1569.81   0.006396   32.32  0.001271  (-0.018570  0.012299  0.027845)
 93:   1614.22   0.003765   19.03  0.000728  ( 0.026469 -0.004204  0.003101)
 94:   1637.70   0.000443    2.24  0.000084  (-0.004173 -0.005322 -0.006217)
 95:   1683.30   0.001508    7.62  0.000280  ( 0.011764  0.007092  0.009532)
 96:   1742.90   0.031842  160.91  0.005701  (-0.051377  0.038923 -0.039327)
 97:   1748.46   0.068642  346.89  0.012251  ( 0.063678  0.059713  0.068050)
 98:   3023.98   0.008546   43.19  0.000882  (-0.004736  0.013010  0.026272)
 99:   3030.18   0.003534   17.86  0.000364  ( 0.016053  0.009033 -0.004966)
100:   3037.30   0.016421   82.99  0.001687  (-0.006369  0.012457  0.038619)
101:   3059.96   0.001142    5.77  0.000116  ( 0.002060 -0.005852  0.008828)
102:   3073.19   0.004076   20.60  0.000414  ( 0.001574  0.019222  0.006477)
103:   3082.36   0.008095   40.91  0.000820  (-0.005309  0.017804 -0.021781)
104:   3086.84   0.002396   12.11  0.000242  ( 0.004725 -0.011706  0.009105)
105:   3121.29   0.002222   11.23  0.000222  ( 0.009946 -0.008747 -0.006835)
106:   3143.99   0.002700   13.65  0.000268  (-0.009232 -0.010396  0.008644)
107:   3144.90   0.001361    6.88  0.000135  ( 0.008664  0.001996 -0.007483)
108:   3174.05   0.001681    8.49  0.000165  (-0.011703 -0.001294 -0.005157)
109:   3183.40   0.000165    0.83  0.000016  (-0.004014 -0.000035 -0.000242)
110:   3186.59   0.001034    5.23  0.000101  (-0.006799 -0.004059  0.006213)
111:   3189.01   0.000228    1.15  0.000022  ( 0.003178 -0.000701  0.003425)
112:   3191.22   0.001628    8.23  0.000159  (-0.006417 -0.009794 -0.004706)
113:   3203.01   0.006910   34.92  0.000673  ( 0.025373 -0.002405 -0.004859)
114:   3212.30   0.003799   19.20  0.000369  (-0.001504 -0.017601 -0.007550)
115:   3284.30   0.000037    0.19  0.000003  (-0.001672  0.000274  0.000783)
116:   3670.05   0.013773   69.60  0.001171  ( 0.028671  0.017913  0.005311)

--------------------------
THERMOCHEMISTRY AT 298.15K
--------------------------

Temperature         ... 298.15 K
Pressure            ... 1.00 atm
Total Mass          ... 273.34 AMU

Throughout the following assumptions are being made:
  (1) The electronic state is orbitally nondegenerate
  (2) There are no thermally accessible electronically excited states
  (3) Hindered rotations indicated by low frequency modes are not
      treated as such but are treated as vibrations and this may
      cause some error
  (4) All equations used are the standard statistical mechanics
      equations for an ideal gas
  (5) All vibrations are strictly harmonic

freq.      24.06  E(vib)   ...       0.56
freq.      43.94  E(vib)   ...       0.53
freq.      62.93  E(vib)   ...       0.51
freq.      87.33  E(vib)   ...       0.48
freq.      92.11  E(vib)   ...       0.47
freq.     117.80  E(vib)   ...       0.44
freq.     130.47  E(vib)   ...       0.43
freq.     140.05  E(vib)   ...       0.41
freq.     167.97  E(vib)   ...       0.38
freq.     174.03  E(vib)   ...       0.38
freq.     188.18  E(vib)   ...       0.36
freq.     198.39  E(vib)   ...       0.35
freq.     216.94  E(vib)   ...       0.34
freq.     234.89  E(vib)   ...       0.32
freq.     250.37  E(vib)   ...       0.30
freq.     292.40  E(vib)   ...       0.27
freq.     310.06  E(vib)   ...       0.26
freq.     334.41  E(vib)   ...       0.24
freq.     367.00  E(vib)   ...       0.22
freq.     382.43  E(vib)   ...       0.21
freq.     411.80  E(vib)   ...       0.19
freq.     420.00  E(vib)   ...       0.18
freq.     436.12  E(vib)   ...       0.17
freq.     442.68  E(vib)   ...       0.17
freq.     464.52  E(vib)   ...       0.16
freq.     500.78  E(vib)   ...       0.14
freq.     549.24  E(vib)   ...       0.12
freq.     576.59  E(vib)   ...       0.11
freq.     587.16  E(vib)   ...       0.10
freq.     594.94  E(vib)   ...       0.10
freq.     598.29  E(vib)   ...       0.10
freq.     614.17  E(vib)   ...       0.10
freq.     655.69  E(vib)   ...       0.08
freq.     691.59  E(vib)   ...       0.07
freq.     747.74  E(vib)   ...       0.06
freq.     754.14  E(vib)   ...       0.06
freq.     758.35  E(vib)   ...       0.06
freq.     776.50  E(vib)   ...       0.05
freq.     782.20  E(vib)   ...       0.05
freq.     802.18  E(vib)   ...       0.05
freq.     836.76  E(vib)   ...       0.04
freq.     859.11  E(vib)   ...       0.04
freq.     891.60  E(vib)   ...       0.03
freq.     916.19  E(vib)   ...       0.03
freq.     947.45  E(vib)   ...       0.03
freq.     962.67  E(vib)   ...       0.03
freq.     970.62  E(vib)   ...       0.03
freq.    1005.40  E(vib)   ...       0.02
freq.    1010.98  E(vib)   ...       0.02
freq.    1045.11  E(vib)   ...       0.02
freq.    1062.19  E(vib)   ...       0.02
freq.    1090.51  E(vib)   ...       0.02
freq.    1099.85  E(vib)   ...       0.02
freq.    1103.97  E(vib)   ...       0.02
freq.    1127.24  E(vib)   ...       0.01
freq.    1145.46  E(vib)   ...       0.01
freq.    1159.67  E(vib)   ...       0.01
freq.    1178.70  E(vib)   ...       0.01
freq.    1187.99  E(vib)   ...       0.01
freq.    1191.64  E(vib)   ...       0.01
freq.    1227.14  E(vib)   ...       0.01
freq.    1255.89  E(vib)   ...       0.01
freq.    1272.38  E(vib)   ...       0.01
freq.    1294.07  E(vib)   ...       0.01
freq.    1296.68  E(vib)   ...       0.01
freq.    1302.22  E(vib)   ...       0.01
freq.    1344.76  E(vib)   ...       0.01
freq.    1374.45  E(vib)   ...       0.01
freq.    1389.92  E(vib)   ...       0.00
freq.    1396.10  E(vib)   ...       0.00
freq.    1413.85  E(vib)   ...       0.00
freq.    1417.63  E(vib)   ...       0.00
freq.    1449.08  E(vib)   ...       0.00
freq.    1461.77  E(vib)   ...       0.00
freq.    1468.31  E(vib)   ...       0.00
freq.    1471.39  E(vib)   ...       0.00
freq.    1495.73  E(vib)   ...       0.00
freq.    1499.11  E(vib)   ...       0.00
freq.    1502.87  E(vib)   ...       0.00
freq.    1511.17  E(vib)   ...       0.00
freq.    1513.70  E(vib)   ...       0.00
freq.    1525.74  E(vib)   ...       0.00
freq.    1527.96  E(vib)   ...       0.00
freq.    1537.70  E(vib)   ...       0.00
freq.    1541.48  E(vib)   ...       0.00
freq.    1542.03  E(vib)   ...       0.00
freq.    1569.81  E(vib)   ...       0.00
freq.    1614.22  E(vib)   ...       0.00
freq.    1637.70  E(vib)   ...       0.00
freq.    1683.30  E(vib)   ...       0.00
freq.    1742.90  E(vib)   ...       0.00
freq.    1748.46  E(vib)   ...       0.00
freq.    3023.98  E(vib)   ...       0.00
freq.    3030.18  E(vib)   ...       0.00
freq.    3037.30  E(vib)   ...       0.00
freq.    3059.96  E(vib)   ...       0.00
freq.    3073.19  E(vib)   ...       0.00
freq.    3082.36  E(vib)   ...       0.00
freq.    3086.84  E(vib)   ...       0.00
freq.    3121.29  E(vib)   ...       0.00
freq.    3143.99  E(vib)   ...       0.00
freq.    3144.90  E(vib)   ...       0.00
freq.    3174.05  E(vib)   ...       0.00
freq.    3183.40  E(vib)   ...       0.00
freq.    3186.59  E(vib)   ...       0.00
freq.    3189.01  E(vib)   ...       0.00
freq.    3191.22  E(vib)   ...       0.00
freq.    3203.01  E(vib)   ...       0.00
freq.    3212.30  E(vib)   ...       0.00
freq.    3284.30  E(vib)   ...       0.00
freq.    3670.05  E(vib)   ...       0.00

------------
INNER ENERGY
------------

The inner energy is: U= E(el) + E(ZPE) + E(vib) + E(rot) + E(trans)
    E(el)   - is the total energy from the electronic structure calculation
              = E(kin-el) + E(nuc-el) + E(el-el) + E(nuc-nuc)
    E(ZPE)  - the the zero temperature vibrational energy from the frequency calculation
    E(vib)  - the the finite temperature correction to E(ZPE) due to population
              of excited vibrational states
    E(rot)  - is the rotational thermal energy
    E(trans)- is the translational thermal energy

Summary of contributions to the inner energy U:
Electronic energy                ...   -897.29299160 Eh
Zero point energy                ...      0.32783061 Eh     205.72 kcal/mol
Thermal vibrational correction   ...      0.01615326 Eh      10.14 kcal/mol
Thermal rotational correction    ...      0.00141627 Eh       0.89 kcal/mol
Thermal translational correction ...      0.00141627 Eh       0.89 kcal/mol
-----------------------------------------------------------------------
Total thermal energy                   -896.94617519 Eh

Summary of corrections to the electronic energy:
(perhaps to be used in another calculation)
Total thermal correction                  0.01898580 Eh      11.91 kcal/mol
Non-thermal (ZPE) correction              0.32783061 Eh     205.72 kcal/mol
-----------------------------------------------------------------------
Total correction                          0.34681641 Eh     217.63 kcal/mol

--------

Rotational constants in cm-1:     0.016516     0.010455     0.009336

                             ****ORCA TERMINATED NORMALLY****
TOTAL RUN TIME: 0 days 0 hours 49 minutes 41 seconds 29 msec
