                         Program Version 5.0.4 -  RELEASE  -
|  1> ! OPT FREQ B3LYP 6-31G(d) D4 AUTOAUX CPCM(water)
|  2>
|  3> %PAL NPROCS 4 END
|  4>
|  5> %maxcore 3375
|  6>
|  7> *xyzfile 0 1 /users/fjb15167/WWenergy/structures/Nse.xyz
|  8>
|  9>                          ****END OF INPUT****
 Total Charge           Charge          ....    0
 Multiplicity           Mult            ....    1
 Number of Electrons    NEL             ....  102
Dispersion correction           -0.049768531
FINAL SINGLE POINT ENERGY      -649.344454349607
Dispersion correction            ... Starting D4
Dispersion correction           -0.049295261
FINAL SINGLE POINT ENERGY      -649.345689165831
Dispersion correction            ... Starting D4
Dispersion correction           -0.049830160
FINAL SINGLE POINT ENERGY      -649.345842267846
Dispersion correction            ... Starting D4
FINAL SINGLE POINT ENERGY      -649.345871013343
FINAL SINGLE POINT ENERGY      -649.346042182645
FINAL SINGLE POINT ENERGY      -649.346112670223
FINAL SINGLE POINT ENERGY      -649.346133829339
FINAL SINGLE POINT ENERGY      -649.346145628834
FINAL SINGLE POINT ENERGY      -649.346152255306
Dispersion correction           -0.049580972
FINAL SINGLE POINT ENERGY      -649.346158067002
Dispersion correction            ... Starting D4
Dispersion correction           -0.049577518
FINAL SINGLE POINT ENERGY      -649.346160518673
Dispersion correction            ... Starting D4
                    ***********************HURRAY********************

CARTESIAN COORDINATES (ANGSTROEM)
---------------------------------
  C     -2.640254    1.765794   -0.506437
  H     -1.763123    2.414722   -0.565139
  H     -3.219481    2.056810    0.378190
  H     -3.263104    1.901096   -1.392311
  C     -2.243301    0.302672   -0.439567
  O     -2.719509   -0.516923   -1.236664
  N     -1.346940   -0.075042    0.524509
  C     -1.013757   -1.490232    0.664526
  H     -1.322828   -1.841276    1.654325
  H     -1.575684   -2.036038   -0.094579
  C     -0.786185    0.842944    1.519033
  H     -1.463299    1.688205    1.648323
  H     -0.741206    0.316806    2.479681
  C      0.614028    1.360363    1.190565
  H      0.906467    2.053005    1.994801
  H      1.339333    0.538512    1.184426
  C      0.489287   -1.786483    0.579212
  N      1.124891   -1.575858   -0.602704
  O      1.075649   -2.199833    1.589687
  C      2.577653   -1.697040   -0.652372
  H      2.870927   -2.217272   -1.570123
  H      3.047954   -0.703509   -0.648507
  H      2.918067   -2.257993    0.216532
  C      0.504388   -0.991497   -1.788436
  H      0.961358   -1.440761   -2.676038
  H     -0.566560   -1.188105   -1.815439
  H      0.663188    0.093352   -1.812732
  O      0.578868    2.019598   -0.072171
  H      1.489173    2.262982   -0.305590

 Multiplicity           Mult            ....    1
 Number of Electrons    NEL             ....  102
 Basis Dimension        Dim             ....  214

ORBITAL ENERGIES
----------------

  NO   OCC          E(Eh)            E(eV)
   0   2.0000     -19.138530      -520.7859
   1   2.0000     -19.108366      -519.9651
   2   2.0000     -19.105813      -519.8956
   3   2.0000     -14.359839      -390.7511
   4   2.0000     -14.356987      -390.6735
   5   2.0000     -10.282122      -279.7908
   6   2.0000     -10.277931      -279.6767
   7   2.0000     -10.220705      -278.1195
   8   2.0000     -10.211205      -277.8610
   9   2.0000     -10.209778      -277.8222
  10   2.0000     -10.194951      -277.4187
  11   2.0000     -10.194110      -277.3958
  12   2.0000     -10.168411      -276.6965
  13   2.0000      -1.031540       -28.0696
  14   2.0000      -1.024136       -27.8682
  15   2.0000      -1.014398       -27.6032
  16   2.0000      -0.932060       -25.3626
  17   2.0000      -0.923833       -25.1388
  18   2.0000      -0.760937       -20.7061
  19   2.0000      -0.745108       -20.2754
  20   2.0000      -0.714551       -19.4439
  21   2.0000      -0.702665       -19.1205
  22   2.0000      -0.668929       -18.2025
  23   2.0000      -0.627732       -17.0815
  24   2.0000      -0.551735       -15.0135
  25   2.0000      -0.536672       -14.6036
  26   2.0000      -0.518985       -14.1223
  27   2.0000      -0.509682       -13.8691
  28   2.0000      -0.476342       -12.9619
  29   2.0000      -0.469396       -12.7729
  30   2.0000      -0.462403       -12.5826
  31   2.0000      -0.452658       -12.3174
  32   2.0000      -0.450719       -12.2647
  33   2.0000      -0.432141       -11.7591
  34   2.0000      -0.411546       -11.1987
  35   2.0000      -0.403710       -10.9855
  36   2.0000      -0.397338       -10.8121
  37   2.0000      -0.393977       -10.7206
  38   2.0000      -0.393306       -10.7024
  39   2.0000      -0.390254       -10.6194
  40   2.0000      -0.385696       -10.4953
  41   2.0000      -0.375138       -10.2080
  42   2.0000      -0.371913       -10.1203
  43   2.0000      -0.355108        -9.6630
  44   2.0000      -0.348462        -9.4821
  45   2.0000      -0.332152        -9.0383
  46   2.0000      -0.268985        -7.3195
  47   2.0000      -0.257836        -7.0161
  48   2.0000      -0.250699        -6.8219
  49   2.0000      -0.235455        -6.4070
  50   2.0000      -0.234589        -6.3835
  51   0.0000       0.018114         0.4929
  52   0.0000       0.029286         0.7969
  53   0.0000       0.073580         2.0022
  54   0.0000       0.113329         3.0839
  55   0.0000       0.120446         3.2775

MULLIKEN ATOMIC CHARGES
-----------------------
   0 C :   -0.569577
   1 H :    0.198000
   2 H :    0.193703
   3 H :    0.175693
   4 C :    0.535981
   5 O :   -0.539100
   6 N :   -0.362130
   7 C :   -0.250492
   8 H :    0.178588
   9 H :    0.206055
  10 C :   -0.185504
  11 H :    0.187603
  12 H :    0.180439
  13 C :   -0.028197
  14 H :    0.146274
  15 H :    0.156352
  16 C :    0.519117
  17 N :   -0.358744
  18 O :   -0.551359
  19 C :   -0.330950
  20 H :    0.172829
  21 H :    0.171706
  22 H :    0.183210
  23 C :   -0.348713
  24 H :    0.169524
  25 H :    0.190404
  26 H :    0.172625
  27 O :   -0.652075
  28 H :    0.438738
Sum of atomic charges:   -0.0000000

LOEWDIN ATOMIC CHARGES
----------------------
   0 C :   -0.399436
   1 H :    0.155482
   2 H :    0.155865
   3 H :    0.147418
   4 C :    0.119152
   5 O :   -0.340697
   6 N :   -0.066797
   7 C :   -0.179731
   8 H :    0.144397
   9 H :    0.161828
  10 C :   -0.165942
  11 H :    0.148894
  12 H :    0.146200
  13 C :   -0.113208
  14 H :    0.119912
  15 H :    0.120911
  16 C :    0.092318
  17 N :   -0.069314
  18 O :   -0.345069
  19 C :   -0.279997
  20 H :    0.137025
  21 H :    0.132033
  22 H :    0.146226
  23 C :   -0.289519
  24 H :    0.136218
  25 H :    0.146589
  26 H :    0.131890
  27 O :   -0.428763
  28 H :    0.336114

  Mayer bond orders larger than 0.100000
B(  0-C ,  1-H ) :   0.9083 B(  0-C ,  2-H ) :   0.9206 B(  0-C ,  3-H ) :   0.9393
B(  0-C ,  4-C ) :   0.9956 B(  4-C ,  5-O ) :   1.7425 B(  4-C ,  6-N ) :   1.1614
B(  6-N ,  7-C ) :   0.9525 B(  6-N , 10-C ) :   0.9476 B(  7-C ,  8-H ) :   0.9162
B(  7-C ,  9-H ) :   0.8904 B(  7-C , 16-C ) :   0.9408 B( 10-C , 11-H ) :   0.9184
B( 10-C , 12-H ) :   0.9217 B( 10-C , 13-C ) :   0.9912 B( 13-C , 14-H ) :   0.9216
B( 13-C , 15-H ) :   0.9127 B( 13-C , 27-O ) :   0.9495 B( 16-C , 17-N ) :   1.2035
B( 16-C , 18-O ) :   1.7391 B( 17-N , 18-O ) :   0.1003 B( 17-N , 19-C ) :   0.9494
B( 17-N , 23-C ) :   0.9465 B( 19-C , 20-H ) :   0.9370 B( 19-C , 21-H ) :   0.9341
B( 19-C , 22-H ) :   0.9264 B( 23-C , 24-H ) :   0.9349 B( 23-C , 25-H ) :   0.9066
B( 23-C , 26-H ) :   0.9170 B( 27-O , 28-H ) :   0.7596

Dispersion correction           -0.049577765
FINAL SINGLE POINT ENERGY      -649.346162317771

DIPOLE MOMENT
-------------
                                X             Y             Z
Electronic contribution:     -3.01873      -4.04143       1.98681
Nuclear contribution   :      4.23862       5.75915      -1.94840
                        -----------------------------------------
Total Dipole Moment    :      1.21989       1.71772       0.03842
                        -----------------------------------------
Magnitude (a.u.)       :      2.10717
Magnitude (Debye)      :      5.35600

Dispersion correction in the Hessian             ... Starting D4

VIBRATIONAL FREQUENCIES
-----------------------

Scaling factor for frequencies =  1.000000000  (already applied!)

   0:         0.00 cm**-1
   1:         0.00 cm**-1
   2:         0.00 cm**-1
   3:         0.00 cm**-1
   4:         0.00 cm**-1
   5:         0.00 cm**-1
   6:        46.69 cm**-1
   7:        65.83 cm**-1
   8:        72.61 cm**-1
   9:        82.96 cm**-1
  10:       104.74 cm**-1
  11:       113.87 cm**-1
  12:       139.65 cm**-1
  13:       160.16 cm**-1
  14:       193.97 cm**-1
  15:       212.03 cm**-1
  16:       218.20 cm**-1
  17:       248.87 cm**-1
  18:       263.07 cm**-1
  19:       278.34 cm**-1
  20:       304.53 cm**-1
  21:       358.15 cm**-1
  22:       400.56 cm**-1
  23:       433.44 cm**-1
  24:       456.76 cm**-1
  25:       493.34 cm**-1
  26:       511.23 cm**-1
  27:       582.30 cm**-1
  28:       595.90 cm**-1
  29:       620.03 cm**-1
  30:       686.76 cm**-1
  31:       757.15 cm**-1
  32:       800.79 cm**-1
  33:       880.20 cm**-1
  34:       923.90 cm**-1
  35:       979.53 cm**-1
  36:      1005.42 cm**-1
  37:      1016.24 cm**-1
  38:      1066.06 cm**-1
  39:      1073.37 cm**-1
  40:      1091.67 cm**-1
  41:      1101.12 cm**-1
  42:      1119.01 cm**-1
  43:      1136.08 cm**-1
  44:      1180.49 cm**-1
  45:      1187.40 cm**-1
  46:      1225.12 cm**-1
  47:      1243.76 cm**-1
  48:      1265.57 cm**-1
  49:      1289.18 cm**-1
  50:      1296.37 cm**-1
  51:      1336.46 cm**-1
  52:      1371.59 cm**-1
  53:      1405.62 cm**-1
  54:      1420.03 cm**-1
  55:      1440.01 cm**-1
  56:      1455.94 cm**-1
  57:      1465.44 cm**-1
  58:      1478.28 cm**-1
  59:      1487.76 cm**-1
  60:      1490.52 cm**-1
  61:      1500.84 cm**-1
  62:      1504.67 cm**-1
  63:      1510.83 cm**-1
  64:      1517.95 cm**-1
  65:      1523.79 cm**-1
  66:      1528.94 cm**-1
  67:      1544.65 cm**-1
  68:      1554.56 cm**-1
  69:      1702.19 cm**-1
  70:      1709.06 cm**-1
  71:      3015.38 cm**-1
  72:      3033.50 cm**-1
  73:      3053.45 cm**-1
  74:      3063.48 cm**-1
  75:      3078.41 cm**-1
  76:      3082.48 cm**-1
  77:      3082.71 cm**-1
  78:      3104.35 cm**-1
  79:      3115.84 cm**-1
  80:      3138.34 cm**-1
  81:      3154.66 cm**-1
  82:      3158.22 cm**-1
  83:      3174.35 cm**-1
  84:      3184.48 cm**-1
  85:      3191.57 cm**-1
  86:      3737.03 cm**-1

IR SPECTRUM
-----------

 Mode   freq       eps      Int      T**2         TX        TY        TZ
       cm**-1   L/(mol*cm) km/mol    a.u.
----------------------------------------------------------------------------
  6:     46.69   0.000286    1.44  0.001909  (-0.041724  0.004143  0.012295)
  7:     65.83   0.001700    8.59  0.008059  ( 0.028724  0.084996 -0.003008)
  8:     72.61   0.000530    2.68  0.002276  ( 0.041191 -0.023956 -0.002296)
  9:     82.96   0.000457    2.31  0.001720  (-0.023360 -0.031447  0.013603)
 10:    104.74   0.000727    3.67  0.002165  ( 0.023768 -0.035672 -0.018110)
 11:    113.87   0.002104   10.64  0.005767  (-0.051973  0.043418  0.034364)
 12:    139.65   0.001900    9.60  0.004247  (-0.059829 -0.020562  0.015626)
 13:    160.16   0.002941   14.86  0.005731  ( 0.000977  0.070927  0.026449)
 14:    193.97   0.012998   65.69  0.020913  (-0.025153  0.120629  0.075687)
 15:    212.03   0.017990   90.91  0.026477  ( 0.018504 -0.143902 -0.073667)
 16:    218.20   0.006656   33.63  0.009519  ( 0.024244 -0.081718 -0.047468)
 17:    248.87   0.005219   26.37  0.006544  ( 0.011387 -0.075996 -0.025280)
 18:    263.07   0.003108   15.71  0.003687  (-0.014763 -0.057674 -0.011950)
 19:    278.34   0.001062    5.37  0.001191  (-0.004159 -0.002833  0.034140)
 20:    304.53   0.001560    7.88  0.001598  ( 0.009817 -0.023919  0.030494)
 21:    358.15   0.002612   13.20  0.002276  (-0.032378 -0.004926  0.034685)
 22:    400.56   0.001382    6.98  0.001077  ( 0.024537  0.019248 -0.010200)
 23:    433.44   0.000929    4.70  0.000669  ( 0.022715 -0.009716 -0.007657)
 24:    456.76   0.002489   12.58  0.001700  ( 0.027617  0.015681  0.026302)
 25:    493.34   0.003209   16.22  0.002030  ( 0.031392 -0.029883 -0.012304)
 26:    511.23   0.005749   29.05  0.003509  (-0.034093 -0.045886  0.015528)
 27:    582.30   0.003146   15.90  0.001686  (-0.038280  0.014196 -0.004379)
 28:    595.90   0.001783    9.01  0.000934  (-0.021366  0.006356 -0.020895)
 29:    620.03   0.006261   31.64  0.003151  (-0.020133 -0.024125  0.046519)
 30:    686.76   0.001655    8.37  0.000752  (-0.000674 -0.003561  0.027186)
 31:    757.15   0.001672    8.45  0.000689  (-0.019674  0.008433  0.015197)
 32:    800.79   0.007231   36.54  0.002818  (-0.016974  0.007696  0.049705)
 33:    880.20   0.003907   19.75  0.001385  (-0.023179 -0.005152  0.028662)
 34:    923.90   0.000774    3.91  0.000261  (-0.011240 -0.006560  0.009596)
 35:    979.53   0.002930   14.81  0.000933  ( 0.010031  0.000570 -0.028851)
 36:   1005.42   0.005265   26.61  0.001634  ( 0.026760  0.010147 -0.028552)
 37:   1016.24   0.006119   30.92  0.001879  ( 0.037955  0.014053  0.015526)
 38:   1066.06   0.003328   16.82  0.000974  (-0.030541  0.006423 -0.000539)
 39:   1073.37   0.016972   85.77  0.004934  (-0.019492  0.036491 -0.056771)
 40:   1091.67   0.001524    7.70  0.000436  ( 0.019136 -0.000585  0.008322)
 41:   1101.12   0.013163   66.52  0.003730  ( 0.008509 -0.025394  0.054892)
 42:   1119.01   0.003985   20.14  0.001111  ( 0.013456 -0.001262 -0.030476)
 43:   1136.08   0.001355    6.85  0.000372  (-0.013633  0.013612  0.000991)
 44:   1180.49   0.012490   63.12  0.003302  ( 0.021315  0.003775 -0.053226)
 45:   1187.40   0.000517    2.61  0.000136  ( 0.008913 -0.005394 -0.005223)
 46:   1225.12   0.012473   63.03  0.003177  ( 0.004660  0.032246 -0.045996)
 47:   1243.76   0.024542  124.03  0.006158  (-0.037806  0.030473 -0.061643)
 48:   1265.57   0.013148   66.45  0.003242  (-0.039576  0.015401 -0.037930)
 49:   1289.18   0.014596   73.76  0.003533  (-0.058592  0.007949  0.006088)
 50:   1296.37   0.018941   95.72  0.004560  (-0.040562  0.050950 -0.017842)
 51:   1336.46   0.004714   23.82  0.001101  ( 0.020334  0.022416 -0.013596)
 52:   1371.59   0.000865    4.37  0.000197  ( 0.004308 -0.002413  0.013133)
 53:   1405.62   0.004579   23.14  0.001017  ( 0.004573  0.031345  0.003641)
 54:   1420.03   0.005744   29.03  0.001262  ( 0.017150  0.015758  0.026829)
 55:   1440.01   0.015616   78.92  0.003384  (-0.038201 -0.008347  0.043072)
 56:   1455.94   0.013866   70.07  0.002972  ( 0.048919 -0.005240 -0.023483)
 57:   1465.44   0.020642  104.32  0.004396  (-0.057413  0.021853 -0.024938)
 58:   1478.28   0.037696  190.50  0.007958  (-0.059843  0.021052 -0.062715)
 59:   1487.76   0.003307   16.71  0.000694  (-0.006525  0.024604  0.006765)
 60:   1490.52   0.001681    8.49  0.000352  ( 0.002029  0.004668 -0.018055)
 61:   1500.84   0.005898   29.80  0.001226  ( 0.016647 -0.026619  0.015511)
 62:   1504.67   0.004259   21.52  0.000883  (-0.000237  0.013036 -0.026707)
 63:   1510.83   0.001022    5.16  0.000211  ( 0.009745  0.003284  0.010259)
 64:   1517.95   0.003582   18.10  0.000736  ( 0.004863  0.026397 -0.003998)
 65:   1523.79   0.001367    6.91  0.000280  ( 0.007928  0.004417 -0.014055)
 66:   1528.94   0.007551   38.16  0.001541  ( 0.012109  0.032470  0.018444)
 67:   1544.65   0.002892   14.62  0.000584  ( 0.010621  0.009069 -0.019730)
 68:   1554.56   0.017530   88.59  0.003519  ( 0.046835 -0.005776 -0.035946)
 69:   1702.19   0.142383  719.54  0.026103  ( 0.073609  0.045541  0.136421)
 70:   1709.06   0.086055  434.88  0.015713  (-0.000852  0.062077 -0.108898)
 71:   3015.38   0.017984   90.88  0.001861  ( 0.018460  0.015514  0.035773)
 72:   3033.50   0.011205   56.62  0.001153  (-0.030666 -0.013341  0.005852)
 73:   3053.45   0.012004   60.66  0.001227  (-0.007167 -0.011998  0.032117)
 74:   3063.48   0.001145    5.79  0.000117  ( 0.009371 -0.004963 -0.002048)
 75:   3078.41   0.006144   31.05  0.000623  ( 0.000650  0.006165  0.024175)
 76:   3082.48   0.014109   71.30  0.001428  (-0.011548  0.032229 -0.016010)
 77:   3082.71   0.006590   33.30  0.000667  ( 0.013097 -0.005419 -0.021593)
 78:   3104.35   0.010288   51.99  0.001034  (-0.007720  0.024575  0.019252)
 79:   3115.84   0.005058   25.56  0.000507  ( 0.005945 -0.016799 -0.013751)
 80:   3138.34   0.001525    7.71  0.000152  ( 0.002841 -0.001403  0.011899)
 81:   3154.66   0.005437   27.48  0.000538  ( 0.013977 -0.018503  0.000371)
 82:   3158.22   0.001930    9.75  0.000191  (-0.012058  0.005152  0.004326)
 83:   3174.35   0.001754    8.86  0.000172  ( 0.005800  0.000245  0.011778)
 84:   3184.48   0.000490    2.48  0.000048  ( 0.000272 -0.006896 -0.000610)
 85:   3191.57   0.001171    5.92  0.000114  (-0.006750  0.004699 -0.006844)
 86:   3737.03   0.013461   68.03  0.001124  (-0.027690 -0.012735  0.013971)

--------------------------
THERMOCHEMISTRY AT 298.15K
--------------------------

Temperature         ... 298.15 K
Pressure            ... 1.00 atm
Total Mass          ... 188.23 AMU

Throughout the following assumptions are being made:
  (1) The electronic state is orbitally nondegenerate
  (2) There are no thermally accessible electronically excited states
  (3) Hindered rotations indicated by low frequency modes are not
      treated as such but are treated as vibrations and this may
      cause some error
  (4) All equations used are the standard statistical mechanics
      equations for an ideal gas
  (5) All vibrations are strictly harmonic

freq.      46.69  E(vib)   ...       0.53
freq.      65.83  E(vib)   ...       0.50
freq.      72.61  E(vib)   ...       0.49
freq.      82.96  E(vib)   ...       0.48
freq.     104.74  E(vib)   ...       0.46
freq.     113.87  E(vib)   ...       0.44
freq.     139.65  E(vib)   ...       0.42
freq.     160.16  E(vib)   ...       0.39
freq.     193.97  E(vib)   ...       0.36
freq.     212.03  E(vib)   ...       0.34
freq.     218.20  E(vib)   ...       0.33
freq.     248.87  E(vib)   ...       0.31
freq.     263.07  E(vib)   ...       0.29
freq.     278.34  E(vib)   ...       0.28
freq.     304.53  E(vib)   ...       0.26
freq.     358.15  E(vib)   ...       0.22
freq.     400.56  E(vib)   ...       0.19
freq.     433.44  E(vib)   ...       0.17
freq.     456.76  E(vib)   ...       0.16
freq.     493.34  E(vib)   ...       0.14
freq.     511.23  E(vib)   ...       0.14
freq.     582.30  E(vib)   ...       0.11
freq.     595.90  E(vib)   ...       0.10
freq.     620.03  E(vib)   ...       0.09
freq.     686.76  E(vib)   ...       0.07
freq.     757.15  E(vib)   ...       0.06
freq.     800.79  E(vib)   ...       0.05
freq.     880.20  E(vib)   ...       0.04
freq.     923.90  E(vib)   ...       0.03
freq.     979.53  E(vib)   ...       0.03
freq.    1005.42  E(vib)   ...       0.02
freq.    1016.24  E(vib)   ...       0.02
freq.    1066.06  E(vib)   ...       0.02
freq.    1073.37  E(vib)   ...       0.02
freq.    1091.67  E(vib)   ...       0.02
freq.    1101.12  E(vib)   ...       0.02
freq.    1119.01  E(vib)   ...       0.01
freq.    1136.08  E(vib)   ...       0.01
freq.    1180.49  E(vib)   ...       0.01
freq.    1187.40  E(vib)   ...       0.01
freq.    1225.12  E(vib)   ...       0.01
freq.    1243.76  E(vib)   ...       0.01
freq.    1265.57  E(vib)   ...       0.01
freq.    1289.18  E(vib)   ...       0.01
freq.    1296.37  E(vib)   ...       0.01
freq.    1336.46  E(vib)   ...       0.01
freq.    1371.59  E(vib)   ...       0.01
freq.    1405.62  E(vib)   ...       0.00
freq.    1420.03  E(vib)   ...       0.00
freq.    1440.01  E(vib)   ...       0.00
freq.    1455.94  E(vib)   ...       0.00
freq.    1465.44  E(vib)   ...       0.00
freq.    1478.28  E(vib)   ...       0.00
freq.    1487.76  E(vib)   ...       0.00
freq.    1490.52  E(vib)   ...       0.00
freq.    1500.84  E(vib)   ...       0.00
freq.    1504.67  E(vib)   ...       0.00
freq.    1510.83  E(vib)   ...       0.00
freq.    1517.95  E(vib)   ...       0.00
freq.    1523.79  E(vib)   ...       0.00
freq.    1528.94  E(vib)   ...       0.00
freq.    1544.65  E(vib)   ...       0.00
freq.    1554.56  E(vib)   ...       0.00
freq.    1702.19  E(vib)   ...       0.00
freq.    1709.06  E(vib)   ...       0.00
freq.    3015.38  E(vib)   ...       0.00
freq.    3033.50  E(vib)   ...       0.00
freq.    3053.45  E(vib)   ...       0.00
freq.    3063.48  E(vib)   ...       0.00
freq.    3078.41  E(vib)   ...       0.00
freq.    3082.48  E(vib)   ...       0.00
freq.    3082.71  E(vib)   ...       0.00
freq.    3104.35  E(vib)   ...       0.00
freq.    3115.84  E(vib)   ...       0.00
freq.    3138.34  E(vib)   ...       0.00
freq.    3154.66  E(vib)   ...       0.00
freq.    3158.22  E(vib)   ...       0.00
freq.    3174.35  E(vib)   ...       0.00
freq.    3184.48  E(vib)   ...       0.00
freq.    3191.57  E(vib)   ...       0.00
freq.    3737.03  E(vib)   ...       0.00

------------
INNER ENERGY
------------

The inner energy is: U= E(el) + E(ZPE) + E(vib) + E(rot) + E(trans)
    E(el)   - is the total energy from the electronic structure calculation
              = E(kin-el) + E(nuc-el) + E(el-el) + E(nuc-nuc)
    E(ZPE)  - the the zero temperature vibrational energy from the frequency calculation
    E(vib)  - the the finite temperature correction to E(ZPE) due to population
              of excited vibrational states
    E(rot)  - is the rotational thermal energy
    E(trans)- is the translational thermal energy

Summary of contributions to the inner energy U:
Electronic energy                ...   -649.34616232 Eh
Zero point energy                ...      0.24968666 Eh     156.68 kcal/mol
Thermal vibrational correction   ...      0.01237412 Eh       7.76 kcal/mol
Thermal rotational correction    ...      0.00141627 Eh       0.89 kcal/mol
Thermal translational correction ...      0.00141627 Eh       0.89 kcal/mol
-----------------------------------------------------------------------
Total thermal energy                   -649.08126899 Eh

Summary of corrections to the electronic energy:
(perhaps to be used in another calculation)
Total thermal correction                  0.01520667 Eh       9.54 kcal/mol
Non-thermal (ZPE) correction              0.24968666 Eh     156.68 kcal/mol
-----------------------------------------------------------------------
Total correction                          0.26489332 Eh     166.22 kcal/mol

--------
ENTHALPY
--------

The enthalpy is H = U + kB*T
                kB is Boltzmann's constant
Total free energy                 ...   -649.08126899 Eh
Thermal Enthalpy correction       ...      0.00094421 Eh       0.59 kcal/mol
-----------------------------------------------------------------------
Total Enthalpy                    ...   -649.08032478 Eh

Note: Only C1 symmetry has been detected, increase convergence thresholds
      if your molecule has a higher symmetry. Symmetry factor of 1.0 is
      used for the rotational entropy correction.

Note: Rotational entropy computed according to Herzberg
Infrared and Raman Spectra, Chapter V,1, Van Nostrand Reinhold, 1945
Point Group:  C1, Symmetry Number:   1
Rotational constants in cm-1:     0.035368     0.020629     0.018636

Vibrational entropy computed according to the QRRHO of S. Grimme
Chem.Eur.J. 2012 18 9955

-------
ENTROPY
-------

The entropy contributions are T*S = T*(S(el)+S(vib)+S(rot)+S(trans))

                             ****ORCA TERMINATED NORMALLY****
TOTAL RUN TIME: 0 days 0 hours 21 minutes 49 seconds 831 msec
