                         Program Version 5.0.4 -  RELEASE  -
|  1> ! OPT FREQ B3LYP 6-31G(d) D4 AUTOAUX
|  2>
|  3> %PAL NPROCS 4 END
|  4>
|  5> %maxcore 3375
|  6>
|  7> *xyzfile 0 1 /users/fjb15167/WWenergy/structures/Nfes.xyz
|  8>
|  9>                          ****END OF INPUT****
 Total Charge           Charge          ....    0
 Multiplicity           Mult            ....    1
 Number of Electrons    NEL             ....  134
Dispersion correction           -0.076937360
FINAL SINGLE POINT ENERGY      -805.063415820026
Dispersion correction            ... Starting D4
Dispersion correction           -0.076227513
FINAL SINGLE POINT ENERGY      -805.063800526479
Dispersion correction            ... Starting D4
Dispersion correction           -0.076697748
FINAL SINGLE POINT ENERGY      -805.063920927441
Dispersion correction            ... Starting D4
FINAL SINGLE POINT ENERGY      -805.063975568657
FINAL SINGLE POINT ENERGY      -805.063974471287
FINAL SINGLE POINT ENERGY      -805.063992628057
FINAL SINGLE POINT ENERGY      -805.063996159877
Dispersion correction           -0.076519003
FINAL SINGLE POINT ENERGY      -805.063998459499
Dispersion correction            ... Starting D4
Dispersion correction           -0.076537532
FINAL SINGLE POINT ENERGY      -805.063996325425
Dispersion correction            ... Starting D4
                    ***********************HURRAY********************

CARTESIAN COORDINATES (ANGSTROEM)
---------------------------------
  C     -2.454782    1.655955    1.027481
  H     -3.062267    1.775124    0.127590
  H     -2.633622    2.487670    1.711987
  H     -2.779035    0.736498    1.527371
  C     -0.955129    1.617883    0.771671
  N     -0.506032    1.075433   -0.411416
  C      0.884020    1.328560   -0.891363
  H      0.812888    1.191397   -1.975804
  C      1.884891    0.300970   -0.386438
  C      2.203469    0.191282    0.975693
  C      2.502955   -0.563408   -1.296814
  C      3.111983   -0.773103    1.407701
  H      1.716563    0.854188    1.682527
  C      3.416117   -1.528522   -0.864168
  H      2.271411   -0.480052   -2.357248
  C      3.719986   -1.637335    0.491914
  H      3.348704   -0.851308    2.465909
  H      3.885632   -2.191854   -1.586048
  H      4.427798   -2.387422    0.834955
  C     -1.376145    0.363175   -1.350372
  H     -1.948055    1.053213   -1.981622
  H     -0.723240   -0.214616   -2.014434
  C     -2.427742   -0.606553   -0.781058
  N     -2.026537   -1.572543    0.098060
  O     -3.592662   -0.487490   -1.153241
  O     -0.182411    2.075150    1.612227
  C     -0.651061   -1.832593    0.496472
  H     -0.398728   -1.353629    1.451378
  H     -0.518521   -2.914790    0.607678
  H      0.056259   -1.485938   -0.252985
  C     -3.041102   -2.412016    0.720488
  H     -2.899993   -3.462770    0.435176
  H     -2.973839   -2.339080    1.814104
  H     -4.021863   -2.076429    0.386274
  C      1.356549    2.774984   -0.685437
  H      2.283322    2.917798   -1.252130
  H      0.606231    3.476864   -1.067192
  H      1.540985    3.002306    0.363116

 Multiplicity           Mult            ....    1
 Number of Electrons    NEL             ....  134
 Basis Dimension        Dim             ....  292

ORBITAL ENERGIES
----------------

  NO   OCC          E(Eh)            E(eV)
   0   2.0000     -19.105259      -519.8805
   1   2.0000     -19.102598      -519.8081
   2   2.0000     -14.361924      -390.8078
   3   2.0000     -14.359266      -390.7355
   4   2.0000     -10.282433      -279.7992
   5   2.0000     -10.279779      -279.7270
   6   2.0000     -10.228473      -278.3309
   7   2.0000     -10.227215      -278.2967
   8   2.0000     -10.209278      -277.8086
   9   2.0000     -10.204646      -277.6825
  10   2.0000     -10.189110      -277.2598
  11   2.0000     -10.185042      -277.1491
  12   2.0000     -10.184473      -277.1336
  13   2.0000     -10.183287      -277.1013
  14   2.0000     -10.181833      -277.0618
  15   2.0000     -10.174189      -276.8538
  16   2.0000     -10.171369      -276.7770
  17   2.0000     -10.163662      -276.5673
  18   2.0000      -1.032222       -28.0882
  19   2.0000      -1.025071       -27.8936
  20   2.0000      -0.936706       -25.4891
  21   2.0000      -0.927823       -25.2474
  22   2.0000      -0.853419       -23.2227
  23   2.0000      -0.788570       -21.4581
  24   2.0000      -0.744077       -20.2474
  25   2.0000      -0.741738       -20.1837
  26   2.0000      -0.732162       -19.9232
  27   2.0000      -0.718921       -19.5628
  28   2.0000      -0.711395       -19.3580
  29   2.0000      -0.681668       -18.5491
  30   2.0000      -0.643119       -17.5001
  31   2.0000      -0.603541       -16.4232
  32   2.0000      -0.591961       -16.1081
  33   2.0000      -0.551615       -15.0102
  34   2.0000      -0.536338       -14.5945
  35   2.0000      -0.513060       -13.9611
  36   2.0000      -0.502464       -13.6727
  37   2.0000      -0.489985       -13.3332
  38   2.0000      -0.482191       -13.1211
  39   2.0000      -0.466788       -12.7020
  40   2.0000      -0.463558       -12.6141
  41   2.0000      -0.449928       -12.2432
  42   2.0000      -0.449242       -12.2245
  43   2.0000      -0.442823       -12.0498
  44   2.0000      -0.423099       -11.5131
  45   2.0000      -0.417964       -11.3734
  46   2.0000      -0.414220       -11.2715
  47   2.0000      -0.406806       -11.0697
  48   2.0000      -0.405042       -11.0218
  49   2.0000      -0.402575       -10.9546
  50   2.0000      -0.399972       -10.8838
  51   2.0000      -0.395747       -10.7688
  52   2.0000      -0.385754       -10.4969
  53   2.0000      -0.381381       -10.3779
  54   2.0000      -0.374885       -10.2011
  55   2.0000      -0.359797        -9.7906
  56   2.0000      -0.354786        -9.6542
  57   2.0000      -0.352839        -9.6012
  58   2.0000      -0.348223        -9.4756
  59   2.0000      -0.336732        -9.1630
  60   2.0000      -0.331593        -9.0231
  61   2.0000      -0.255038        -6.9399
  62   2.0000      -0.250393        -6.8135
  63   2.0000      -0.245207        -6.6724
  64   2.0000      -0.240626        -6.5478
  65   2.0000      -0.238620        -6.4932
  66   2.0000      -0.234395        -6.3782
  67   0.0000      -0.005030        -0.1369
  68   0.0000      -0.000922        -0.0251
  69   0.0000       0.016860         0.4588
  70   0.0000       0.023837         0.6486
  71   0.0000       0.077041         2.0964

MULLIKEN ATOMIC CHARGES
-----------------------
   0 C :   -0.555094
   1 H :    0.184743
   2 H :    0.183529
   3 H :    0.182268
   4 C :    0.531899
   5 N :   -0.388060
   6 C :   -0.064032
   7 H :    0.138420
   8 C :    0.161315
   9 C :   -0.183639
  10 C :   -0.199563
  11 C :   -0.135577
  12 H :    0.182392
  13 C :   -0.125279
  14 H :    0.120776
  15 C :   -0.126884
  16 H :    0.131680
  17 H :    0.128582
  18 H :    0.128708
  19 C :   -0.252100
  20 H :    0.183645
  21 H :    0.174453
  22 C :    0.518971
  23 N :   -0.367747
  24 O :   -0.480064
  25 O :   -0.478769
  26 C :   -0.325541
  27 H :    0.170944
  28 H :    0.156116
  29 H :    0.182704
  30 C :   -0.325580
  31 H :    0.155178
  32 H :    0.153294
  33 H :    0.203722
  34 C :   -0.451882
  35 H :    0.145499
  36 H :    0.143587
  37 H :    0.197389
Sum of atomic charges:    0.0000000

LOEWDIN ATOMIC CHARGES
----------------------
   0 C :   -0.393909
   1 H :    0.146919
   2 H :    0.152693
   3 H :    0.152066
   4 C :    0.112846
   5 N :   -0.086131
   6 C :   -0.040593
   7 H :    0.126753
   8 C :   -0.027021
   9 C :   -0.130072
  10 C :   -0.146159
  11 C :   -0.128424
  12 H :    0.154262
  13 C :   -0.131813
  14 H :    0.125508
  15 C :   -0.131079
  16 H :    0.132153
  17 H :    0.131137
  18 H :    0.131033
  19 C :   -0.179767
  20 H :    0.142928
  21 H :    0.144918
  22 C :    0.091649
  23 N :   -0.083686
  24 O :   -0.281159
  25 O :   -0.282556
  26 C :   -0.278048
  27 H :    0.131169
  28 H :    0.129462
  29 H :    0.144437
  30 C :   -0.278565
  31 H :    0.125444
  32 H :    0.124039
  33 H :    0.156716
  34 C :   -0.362745
  35 H :    0.129682
  36 H :    0.126921
  37 H :    0.148994

  Mayer bond orders larger than 0.100000
B(  0-C ,  1-H ) :   0.9196 B(  0-C ,  2-H ) :   0.9361 B(  0-C ,  3-H ) :   0.9250
B(  0-C ,  4-C ) :   0.9853 B(  4-C ,  5-N ) :   1.1245 B(  4-C , 25-O ) :   1.7794
B(  5-N ,  6-C ) :   0.9133 B(  5-N , 19-C ) :   0.9292 B(  6-C ,  7-H ) :   0.9248
B(  6-C ,  8-C ) :   0.9480 B(  6-C , 34-C ) :   1.0086 B(  8-C ,  9-C ) :   1.4360
B(  8-C , 10-C ) :   1.4238 B(  9-C , 11-C ) :   1.4367 B(  9-C , 12-H ) :   0.8871
B( 10-C , 13-C ) :   1.4276 B( 10-C , 14-H ) :   0.9233 B( 11-C , 15-C ) :   1.4350
B( 11-C , 16-H ) :   0.9304 B( 13-C , 15-C ) :   1.4661 B( 13-C , 17-H ) :   0.9294
B( 15-C , 18-H ) :   0.9307 B( 19-C , 20-H ) :   0.9145 B( 19-C , 21-H ) :   0.9145
B( 19-C , 22-C ) :   0.9370 B( 22-C , 23-N ) :   1.1553 B( 22-C , 24-O ) :   1.8007
B( 23-N , 24-O ) :   0.1006 B( 23-N , 26-C ) :   0.9496 B( 23-N , 30-C ) :   0.9532
B( 26-C , 27-H ) :   0.9291 B( 26-C , 28-H ) :   0.9385 B( 26-C , 29-H ) :   0.9194
B( 30-C , 31-H ) :   0.9403 B( 30-C , 32-H ) :   0.9403 B( 30-C , 33-H ) :   0.9186
B( 34-C , 35-H ) :   0.9409 B( 34-C , 36-H ) :   0.9440 B( 34-C , 37-H ) :   0.9262

Dispersion correction           -0.076517473
FINAL SINGLE POINT ENERGY      -805.063998519059

DIPOLE MOMENT
-------------
                                X             Y             Z
Electronic contribution:      1.77886       1.38216      -1.20214
Nuclear contribution   :     -1.11439      -2.30635       0.90606
                        -----------------------------------------
Total Dipole Moment    :      0.66448      -0.92419      -0.29608
                        -----------------------------------------
Magnitude (a.u.)       :      1.17615
Magnitude (Debye)      :      2.98953

Dispersion correction in the Hessian             ... Starting D4

VIBRATIONAL FREQUENCIES
-----------------------

Scaling factor for frequencies =  1.000000000  (already applied!)

   0:         0.00 cm**-1
   1:         0.00 cm**-1
   2:         0.00 cm**-1
   3:         0.00 cm**-1
   4:         0.00 cm**-1
   5:         0.00 cm**-1
   6:        29.56 cm**-1
   7:        45.82 cm**-1
   8:        50.95 cm**-1
   9:        71.70 cm**-1
  10:        88.05 cm**-1
  11:        97.28 cm**-1
  12:       104.84 cm**-1
  13:       130.13 cm**-1
  14:       155.86 cm**-1
  15:       169.79 cm**-1
  16:       181.43 cm**-1
  17:       195.86 cm**-1
  18:       214.00 cm**-1
  19:       228.53 cm**-1
  20:       237.96 cm**-1
  21:       249.73 cm**-1
  22:       285.32 cm**-1
  23:       297.54 cm**-1
  24:       326.57 cm**-1
  25:       333.48 cm**-1
  26:       404.64 cm**-1
  27:       420.06 cm**-1
  28:       431.86 cm**-1
  29:       450.49 cm**-1
  30:       505.47 cm**-1
  31:       558.22 cm**-1
  32:       579.79 cm**-1
  33:       587.33 cm**-1
  34:       610.42 cm**-1
  35:       634.69 cm**-1
  36:       649.85 cm**-1
  37:       701.79 cm**-1
  38:       722.74 cm**-1
  39:       746.09 cm**-1
  40:       774.83 cm**-1
  41:       788.02 cm**-1
  42:       811.54 cm**-1
  43:       871.94 cm**-1
  44:       922.60 cm**-1
  45:       937.04 cm**-1
  46:       981.69 cm**-1
  47:      1001.50 cm**-1
  48:      1008.12 cm**-1
  49:      1013.92 cm**-1
  50:      1016.86 cm**-1
  51:      1025.75 cm**-1
  52:      1056.80 cm**-1
  53:      1062.81 cm**-1
  54:      1069.55 cm**-1
  55:      1091.22 cm**-1
  56:      1096.37 cm**-1
  57:      1124.08 cm**-1
  58:      1138.14 cm**-1
  59:      1145.74 cm**-1
  60:      1179.68 cm**-1
  61:      1192.95 cm**-1
  62:      1195.76 cm**-1
  63:      1208.02 cm**-1
  64:      1218.16 cm**-1
  65:      1242.12 cm**-1
  66:      1292.28 cm**-1
  67:      1299.58 cm**-1
  68:      1326.66 cm**-1
  69:      1337.66 cm**-1
  70:      1369.12 cm**-1
  71:      1383.70 cm**-1
  72:      1400.97 cm**-1
  73:      1423.82 cm**-1
  74:      1432.96 cm**-1
  75:      1445.36 cm**-1
  76:      1456.69 cm**-1
  77:      1481.36 cm**-1
  78:      1494.88 cm**-1
  79:      1502.80 cm**-1
  80:      1507.01 cm**-1
  81:      1512.45 cm**-1
  82:      1514.78 cm**-1
  83:      1521.78 cm**-1
  84:      1523.95 cm**-1
  85:      1530.51 cm**-1
  86:      1534.47 cm**-1
  87:      1536.43 cm**-1
  88:      1545.33 cm**-1
  89:      1561.87 cm**-1
  90:      1643.67 cm**-1
  91:      1664.91 cm**-1
  92:      1747.43 cm**-1
  93:      1758.93 cm**-1
  94:      3031.82 cm**-1
  95:      3045.19 cm**-1
  96:      3049.50 cm**-1
  97:      3057.87 cm**-1
  98:      3064.33 cm**-1
  99:      3072.02 cm**-1
 100:      3080.63 cm**-1
 101:      3096.75 cm**-1
 102:      3097.52 cm**-1
 103:      3119.20 cm**-1
 104:      3140.86 cm**-1
 105:      3167.41 cm**-1
 106:      3170.50 cm**-1
 107:      3183.16 cm**-1
 108:      3191.47 cm**-1
 109:      3193.97 cm**-1
 110:      3194.89 cm**-1
 111:      3205.00 cm**-1
 112:      3207.28 cm**-1
 113:      3232.22 cm**-1

IR SPECTRUM
-----------

 Mode   freq       eps      Int      T**2         TX        TY        TZ
       cm**-1   L/(mol*cm) km/mol    a.u.
----------------------------------------------------------------------------
  6:     29.56   0.000293    1.48  0.003092  (-0.012305 -0.030020 -0.045156)
  7:     45.82   0.000057    0.29  0.000391  (-0.014759  0.011164  0.006989)
  8:     50.95   0.000124    0.63  0.000759  ( 0.013158 -0.007120 -0.023136)
  9:     71.70   0.000425    2.15  0.001849  ( 0.014889  0.037414 -0.015069)
 10:     88.05   0.000173    0.88  0.000614  (-0.017096 -0.005604  0.017053)
 11:     97.28   0.000699    3.53  0.002242  ( 0.003084  0.047242 -0.000914)
 12:    104.84   0.000249    1.26  0.000741  ( 0.002490  0.022485  0.015125)
 13:    130.13   0.000506    2.56  0.001214  (-0.021377  0.025244 -0.010958)
 14:    155.86   0.000675    3.41  0.001352  (-0.011058  0.035061  0.000163)
 15:    169.79   0.000086    0.43  0.000157  ( 0.010996  0.001098 -0.005941)
 16:    181.43   0.000089    0.45  0.000153  ( 0.006412  0.006751 -0.008143)
 17:    195.86   0.000567    2.86  0.000903  (-0.021285  0.018522  0.010318)
 18:    214.00   0.000020    0.10  0.000030  (-0.004121 -0.001522  0.003199)
 19:    228.53   0.000694    3.51  0.000948  (-0.013532  0.013531  0.024123)
 20:    237.96   0.000911    4.61  0.001195  (-0.005610 -0.031945 -0.011962)
 21:    249.73   0.000113    0.57  0.000141  ( 0.008023  0.007109 -0.005104)
 22:    285.32   0.000465    2.35  0.000509  (-0.011093 -0.004318  0.019165)
 23:    297.54   0.000314    1.59  0.000330  (-0.003123  0.012639 -0.012653)
 24:    326.57   0.000118    0.60  0.000113  ( 0.001064  0.005597  0.008971)
 25:    333.48   0.000334    1.69  0.000312  ( 0.008715 -0.013921  0.006508)
 26:    404.64   0.000955    4.82  0.000736  (-0.007863 -0.019227  0.017455)
 27:    420.06   0.000071    0.36  0.000053  ( 0.007079 -0.001137  0.001180)
 28:    431.86   0.001251    6.32  0.000904  (-0.005517 -0.028951  0.005938)
 29:    450.49   0.001201    6.07  0.000832  (-0.021743 -0.010878  0.015528)
 30:    505.47   0.001738    8.78  0.001073  (-0.025829  0.012235  0.016009)
 31:    558.22   0.002565   12.96  0.001434  ( 0.022577  0.015670 -0.026052)
 32:    579.79   0.004211   21.28  0.002266  (-0.029612 -0.032022 -0.019081)
 33:    587.33   0.000764    3.86  0.000406  ( 0.019232 -0.005933  0.001009)
 34:    610.42   0.001456    7.36  0.000745  (-0.006051  0.024480 -0.010424)
 35:    634.69   0.000250    1.26  0.000123  ( 0.006483 -0.008936  0.000890)
 36:    649.85   0.002767   13.98  0.001329  ( 0.013618 -0.033814  0.000260)
 37:    701.79   0.000311    1.57  0.000138  ( 0.006080  0.003344  0.009493)
 38:    722.74   0.008057   40.72  0.003479  ( 0.045928  0.036745 -0.004418)
 39:    746.09   0.000573    2.89  0.000239  (-0.005404  0.014380 -0.001865)
 40:    774.83   0.003147   15.90  0.001267  ( 0.009765 -0.033859  0.005056)
 41:    788.02   0.002583   13.05  0.001023  ( 0.030867  0.008360 -0.000310)
 42:    811.54   0.000266    1.34  0.000102  ( 0.010099  0.000337  0.000449)
 43:    871.94   0.000068    0.34  0.000024  ( 0.003157  0.002441  0.002908)
 44:    922.60   0.000115    0.58  0.000039  (-0.005855 -0.002128  0.000370)
 45:    937.04   0.001040    5.26  0.000347  ( 0.016863  0.007880  0.000224)
 46:    981.69   0.000146    0.74  0.000046  (-0.006170 -0.002150 -0.001946)
 47:   1001.50   0.002756   13.93  0.000859  (-0.016250  0.024251  0.002575)
 48:   1008.12   0.005512   27.86  0.001706  ( 0.005927  0.020648 -0.035282)
 49:   1013.92   0.001029    5.20  0.000317  ( 0.012768  0.009708  0.007718)
 50:   1016.86   0.000442    2.24  0.000136  ( 0.003650  0.010880 -0.002017)
 51:   1025.75   0.001647    8.33  0.000501  (-0.004265  0.021546 -0.004332)
 52:   1056.80   0.001478    7.47  0.000436  (-0.018435 -0.007671 -0.006146)
 53:   1062.81   0.001172    5.92  0.000344  (-0.005382  0.017070 -0.004876)
 54:   1069.55   0.000535    2.70  0.000156  ( 0.002099 -0.000828  0.012290)
 55:   1091.22   0.000650    3.29  0.000186  (-0.013395 -0.001772  0.001829)
 56:   1096.37   0.000390    1.97  0.000111  ( 0.003575 -0.005570  0.008201)
 57:   1124.08   0.001119    5.65  0.000311  ( 0.006148 -0.009233 -0.013696)
 58:   1138.14   0.000397    2.01  0.000109  (-0.009110  0.001244 -0.004928)
 59:   1145.74   0.006279   31.73  0.001710  (-0.039053 -0.012576 -0.005194)
 60:   1179.68   0.001731    8.75  0.000458  (-0.015582  0.013965 -0.004471)
 61:   1192.95   0.000161    0.81  0.000042  (-0.005456  0.002181 -0.002754)
 62:   1195.76   0.009318   47.09  0.002432  ( 0.015836 -0.037553  0.027762)
 63:   1208.02   0.010365   52.38  0.002677  (-0.049990 -0.006850  0.011469)
 64:   1218.16   0.000099    0.50  0.000025  (-0.003165  0.003796 -0.000934)
 65:   1242.12   0.000995    5.03  0.000250  ( 0.003178 -0.003135  0.015166)
 66:   1292.28   0.004849   24.50  0.001171  ( 0.010351 -0.032307 -0.004476)
 67:   1299.58   0.008783   44.38  0.002109  ( 0.037450  0.023721 -0.011990)
 68:   1326.66   0.009561   48.32  0.002249  (-0.031273  0.025696  0.024714)
 69:   1337.66   0.021195  107.11  0.004944  (-0.019735  0.024158  0.063019)
 70:   1369.12   0.000883    4.46  0.000201  (-0.010923  0.008152 -0.003937)
 71:   1383.70   0.004008   20.26  0.000904  (-0.027349  0.006140  0.010876)
 72:   1400.97   0.004593   23.21  0.001023  (-0.025647  0.013859  0.013159)
 73:   1423.82   0.004327   21.87  0.000948  (-0.022201  0.006221  0.020417)
 74:   1432.96   0.003175   16.04  0.000691  (-0.022608 -0.011755  0.006490)
 75:   1445.36   0.012953   65.46  0.002797  ( 0.012569 -0.044206  0.026162)
 76:   1456.69   0.008170   41.29  0.001750  (-0.016796 -0.029489  0.024463)
 77:   1481.36   0.008351   42.20  0.001759  ( 0.003928 -0.028001 -0.030981)
 78:   1494.88   0.002628   13.28  0.000549  (-0.012936  0.014062  0.013550)
 79:   1502.80   0.000566    2.86  0.000118  ( 0.008609  0.005984 -0.002768)
 80:   1507.01   0.001061    5.36  0.000220  (-0.003387 -0.010235 -0.010172)
 81:   1512.45   0.002497   12.62  0.000515  (-0.012491 -0.015573 -0.010805)
 82:   1514.78   0.003163   15.99  0.000652  ( 0.010084  0.019263 -0.013378)
 83:   1521.78   0.002299   11.62  0.000471  ( 0.019454 -0.009336  0.002422)
 84:   1523.95   0.001191    6.02  0.000244  (-0.013647  0.007267 -0.002221)
 85:   1530.51   0.004705   23.78  0.000959  ( 0.006784 -0.016706 -0.025184)
 86:   1534.47   0.000787    3.98  0.000160  ( 0.004819  0.010744  0.004618)
 87:   1536.43   0.005938   30.01  0.001206  ( 0.026674  0.004479 -0.021781)
 88:   1545.33   0.003543   17.91  0.000716  (-0.023154  0.013212 -0.002198)
 89:   1561.87   0.007195   36.36  0.001438  (-0.007476 -0.028619  0.023719)
 90:   1643.67   0.000545    2.75  0.000103  (-0.005691 -0.002763 -0.007960)
 91:   1664.91   0.000488    2.47  0.000091  (-0.008571  0.004118 -0.001034)
 92:   1747.43   0.041805  211.27  0.007466  ( 0.043438  0.042009  0.061759)
 93:   1758.93   0.058426  295.26  0.010366  ( 0.082277 -0.036878  0.047288)
 94:   3031.82   0.008477   42.84  0.000873  (-0.014800 -0.021150  0.014360)
 95:   3045.19   0.007307   36.92  0.000749  (-0.014131  0.014849 -0.018127)
 96:   3049.50   0.000190    0.96  0.000019  ( 0.001353 -0.002081  0.003642)
 97:   3057.87   0.003850   19.46  0.000393  ( 0.008543  0.016668  0.006487)
 98:   3064.33   0.008646   43.69  0.000881  ( 0.004937 -0.012558  0.026428)
 99:   3072.02   0.000720    3.64  0.000073  ( 0.007333  0.000637 -0.004349)
100:   3080.63   0.007458   37.69  0.000756  ( 0.000707  0.020401  0.018407)
101:   3096.75   0.003276   16.56  0.000330  ( 0.007173 -0.016671 -0.000894)
102:   3097.52   0.003080   15.57  0.000310  (-0.006838 -0.015703 -0.004122)
103:   3119.20   0.006164   31.15  0.000617  ( 0.023360 -0.008092 -0.002352)
104:   3140.86   0.001569    7.93  0.000156  (-0.004022  0.011382 -0.003184)
105:   3167.41   0.002129   10.76  0.000210  (-0.006222  0.004806 -0.012162)
106:   3170.50   0.001088    5.50  0.000107  (-0.002296 -0.005244 -0.008620)
107:   3183.16   0.000253    1.28  0.000025  (-0.003011  0.003934 -0.000503)
108:   3191.47   0.000222    1.12  0.000022  (-0.004391 -0.001253  0.000921)
109:   3193.97   0.006173   31.20  0.000603  ( 0.000139  0.003708  0.024276)
110:   3194.89   0.000430    2.17  0.000042  (-0.001599  0.001767 -0.006029)
111:   3205.00   0.000775    3.92  0.000076  (-0.000226  0.002401 -0.008348)
112:   3207.28   0.005038   25.46  0.000490  ( 0.016203 -0.015021  0.001434)
113:   3232.22   0.001723    8.71  0.000166  ( 0.011314 -0.006024  0.001436)

--------------------------
THERMOCHEMISTRY AT 298.15K
--------------------------

Temperature         ... 298.15 K
Pressure            ... 1.00 atm
Total Mass          ... 248.33 AMU

Throughout the following assumptions are being made:
  (1) The electronic state is orbitally nondegenerate
  (2) There are no thermally accessible electronically excited states
  (3) Hindered rotations indicated by low frequency modes are not
      treated as such but are treated as vibrations and this may
      cause some error
  (4) All equations used are the standard statistical mechanics
      equations for an ideal gas
  (5) All vibrations are strictly harmonic

freq.      29.56  E(vib)   ...       0.55
freq.      45.82  E(vib)   ...       0.53
freq.      50.95  E(vib)   ...       0.52
freq.      71.70  E(vib)   ...       0.50
freq.      88.05  E(vib)   ...       0.48
freq.      97.28  E(vib)   ...       0.46
freq.     104.84  E(vib)   ...       0.46
freq.     130.13  E(vib)   ...       0.43
freq.     155.86  E(vib)   ...       0.40
freq.     169.79  E(vib)   ...       0.38
freq.     181.43  E(vib)   ...       0.37
freq.     195.86  E(vib)   ...       0.36
freq.     214.00  E(vib)   ...       0.34
freq.     228.53  E(vib)   ...       0.32
freq.     237.96  E(vib)   ...       0.32
freq.     249.73  E(vib)   ...       0.31
freq.     285.32  E(vib)   ...       0.28
freq.     297.54  E(vib)   ...       0.27
freq.     326.57  E(vib)   ...       0.24
freq.     333.48  E(vib)   ...       0.24
freq.     404.64  E(vib)   ...       0.19
freq.     420.06  E(vib)   ...       0.18
freq.     431.86  E(vib)   ...       0.18
freq.     450.49  E(vib)   ...       0.17
freq.     505.47  E(vib)   ...       0.14
freq.     558.22  E(vib)   ...       0.12
freq.     579.79  E(vib)   ...       0.11
freq.     587.33  E(vib)   ...       0.10
freq.     610.42  E(vib)   ...       0.10
freq.     634.69  E(vib)   ...       0.09
freq.     649.85  E(vib)   ...       0.08
freq.     701.79  E(vib)   ...       0.07
freq.     722.74  E(vib)   ...       0.07
freq.     746.09  E(vib)   ...       0.06
freq.     774.83  E(vib)   ...       0.05
freq.     788.02  E(vib)   ...       0.05
freq.     811.54  E(vib)   ...       0.05
freq.     871.94  E(vib)   ...       0.04
freq.     922.60  E(vib)   ...       0.03
freq.     937.04  E(vib)   ...       0.03
freq.     981.69  E(vib)   ...       0.02
freq.    1001.50  E(vib)   ...       0.02
freq.    1008.12  E(vib)   ...       0.02
freq.    1013.92  E(vib)   ...       0.02
freq.    1016.86  E(vib)   ...       0.02
freq.    1025.75  E(vib)   ...       0.02
freq.    1056.80  E(vib)   ...       0.02
freq.    1062.81  E(vib)   ...       0.02
freq.    1069.55  E(vib)   ...       0.02
freq.    1091.22  E(vib)   ...       0.02
freq.    1096.37  E(vib)   ...       0.02
freq.    1124.08  E(vib)   ...       0.01
freq.    1138.14  E(vib)   ...       0.01
freq.    1145.74  E(vib)   ...       0.01
freq.    1179.68  E(vib)   ...       0.01
freq.    1192.95  E(vib)   ...       0.01
freq.    1195.76  E(vib)   ...       0.01
freq.    1208.02  E(vib)   ...       0.01
freq.    1218.16  E(vib)   ...       0.01
freq.    1242.12  E(vib)   ...       0.01
freq.    1292.28  E(vib)   ...       0.01
freq.    1299.58  E(vib)   ...       0.01
freq.    1326.66  E(vib)   ...       0.01
freq.    1337.66  E(vib)   ...       0.01
freq.    1369.12  E(vib)   ...       0.01
freq.    1383.70  E(vib)   ...       0.00
freq.    1400.97  E(vib)   ...       0.00
freq.    1423.82  E(vib)   ...       0.00
freq.    1432.96  E(vib)   ...       0.00
freq.    1445.36  E(vib)   ...       0.00
freq.    1456.69  E(vib)   ...       0.00
freq.    1481.36  E(vib)   ...       0.00
freq.    1494.88  E(vib)   ...       0.00
freq.    1502.80  E(vib)   ...       0.00
freq.    1507.01  E(vib)   ...       0.00
freq.    1512.45  E(vib)   ...       0.00
freq.    1514.78  E(vib)   ...       0.00
freq.    1521.78  E(vib)   ...       0.00
freq.    1523.95  E(vib)   ...       0.00
freq.    1530.51  E(vib)   ...       0.00
freq.    1534.47  E(vib)   ...       0.00
freq.    1536.43  E(vib)   ...       0.00
freq.    1545.33  E(vib)   ...       0.00
freq.    1561.87  E(vib)   ...       0.00
freq.    1643.67  E(vib)   ...       0.00
freq.    1664.91  E(vib)   ...       0.00
freq.    1747.43  E(vib)   ...       0.00
freq.    1758.93  E(vib)   ...       0.00
freq.    3031.82  E(vib)   ...       0.00
freq.    3045.19  E(vib)   ...       0.00
freq.    3049.50  E(vib)   ...       0.00
freq.    3057.87  E(vib)   ...       0.00
freq.    3064.33  E(vib)   ...       0.00
freq.    3072.02  E(vib)   ...       0.00
freq.    3080.63  E(vib)   ...       0.00
freq.    3096.75  E(vib)   ...       0.00
freq.    3097.52  E(vib)   ...       0.00
freq.    3119.20  E(vib)   ...       0.00
freq.    3140.86  E(vib)   ...       0.00
freq.    3167.41  E(vib)   ...       0.00
freq.    3170.50  E(vib)   ...       0.00
freq.    3183.16  E(vib)   ...       0.00
freq.    3191.47  E(vib)   ...       0.00
freq.    3193.97  E(vib)   ...       0.00
freq.    3194.89  E(vib)   ...       0.00
freq.    3205.00  E(vib)   ...       0.00
freq.    3207.28  E(vib)   ...       0.00
freq.    3232.22  E(vib)   ...       0.00

------------
INNER ENERGY
------------

The inner energy is: U= E(el) + E(ZPE) + E(vib) + E(rot) + E(trans)
    E(el)   - is the total energy from the electronic structure calculation
              = E(kin-el) + E(nuc-el) + E(el-el) + E(nuc-nuc)
    E(ZPE)  - the the zero temperature vibrational energy from the frequency calculation
    E(vib)  - the the finite temperature correction to E(ZPE) due to population
              of excited vibrational states
    E(rot)  - is the rotational thermal energy
    E(trans)- is the translational thermal energy

Summary of contributions to the inner energy U:
Electronic energy                ...   -805.06399852 Eh
Zero point energy                ...      0.32583736 Eh     204.47 kcal/mol
Thermal vibrational correction   ...      0.01602217 Eh      10.05 kcal/mol
Thermal rotational correction    ...      0.00141627 Eh       0.89 kcal/mol
Thermal translational correction ...      0.00141627 Eh       0.89 kcal/mol
-----------------------------------------------------------------------
Total thermal energy                   -804.71930644 Eh

Summary of corrections to the electronic energy:
(perhaps to be used in another calculation)
Total thermal correction                  0.01885472 Eh      11.83 kcal/mol
Non-thermal (ZPE) correction              0.32583736 Eh     204.47 kcal/mol
-----------------------------------------------------------------------
Total correction                          0.34469208 Eh     216.30 kcal/mol

--------
ENTHALPY
--------

Rotational constants in cm-1:     0.020271     0.010742     0.008882

                             ****ORCA TERMINATED NORMALLY****
TOTAL RUN TIME: 0 days 0 hours 35 minutes 58 seconds 814 msec
