                         Program Version 5.0.4 -  RELEASE  -
|  1> ! OPT FREQ B3LYP 6-31G(d) D4 AUTOAUX CPCM(water)
|  2>
|  3> %PAL NPROCS 4 END
|  4>
|  5> %maxcore 3375
|  6>
|  7> *xyzfile 0 1 /users/fjb15167/WWenergy/structures/Nn.xyz
|  8>
|  9>                          ****END OF INPUT****
 Total Charge           Charge          ....    0
 Multiplicity           Mult            ....    1
 Number of Electrons    NEL             ....  108
Dispersion correction           -0.046699167
FINAL SINGLE POINT ENERGY      -703.496153997269
Dispersion correction            ... Starting D4
Dispersion correction           -0.046492698
FINAL SINGLE POINT ENERGY      -703.504507570301
Dispersion correction            ... Starting D4
Dispersion correction           -0.046513586
FINAL SINGLE POINT ENERGY      -703.505144254165
Dispersion correction            ... Starting D4
FINAL SINGLE POINT ENERGY      -703.505393716338
FINAL SINGLE POINT ENERGY      -703.505524324654
FINAL SINGLE POINT ENERGY      -703.505624021162
FINAL SINGLE POINT ENERGY      -703.505753194857
FINAL SINGLE POINT ENERGY      -703.505813153674
FINAL SINGLE POINT ENERGY      -703.505894719483
FINAL SINGLE POINT ENERGY      -703.505945192012
FINAL SINGLE POINT ENERGY      -703.505969299701
FINAL SINGLE POINT ENERGY      -703.505988789628
Dispersion correction           -0.046420015
FINAL SINGLE POINT ENERGY      -703.505997742684
Dispersion correction            ... Starting D4
Dispersion correction           -0.046418724
FINAL SINGLE POINT ENERGY      -703.506000756831
Dispersion correction            ... Starting D4
                    ***********************HURRAY********************

CARTESIAN COORDINATES (ANGSTROEM)
---------------------------------
  C      1.398423   -1.620372   -0.843071
  H      2.586831   -0.668652   -2.388294
  H      3.117700   -2.292583   -1.896855
  H      3.440322   -0.884531   -0.849200
  O      0.894002   -2.748783   -0.849517
  C      2.720785   -1.343117   -1.534070
  N      0.788573   -0.574996   -0.209007
  C     -0.453108   -0.814751    0.496176
  H     -0.492359   -1.871716    0.767949
  H     -0.459513   -0.227220    1.420425
  C      1.308931    0.774836   -0.180332
  H      1.894394    0.981735   -1.080196
  H      0.471764    1.479107   -0.191073
  C      2.210325    1.021693    1.041248
  O      2.768271    0.097032    1.632427
  N      2.353548    2.321643    1.379882
  H      1.900828    3.066116    0.866557
  H      3.004554    2.576302    2.112031
  C     -1.668476   -0.451547   -0.377832
  O     -1.505633   -0.057616   -1.537599
  N     -2.894400   -0.594692    0.191280
  C     -3.122223   -0.986328    1.578057
  H     -2.262165   -1.510301    1.992854
  H     -3.341671   -0.110966    2.204384
  H     -3.982089   -1.662866    1.619324
  C     -4.086836   -0.194876   -0.547463
  H     -4.800897   -1.026095   -0.582218
  H     -4.571084    0.659274   -0.056328
  H     -3.797797    0.084269   -1.559540

 Multiplicity           Mult            ....    1
 Number of Electrons    NEL             ....  108
 Basis Dimension        Dim             ....  226

ORBITAL ENERGIES
----------------

  NO   OCC          E(Eh)            E(eV)
   0   2.0000     -19.112947      -520.0897
   1   2.0000     -19.107027      -519.9286
   2   2.0000     -19.105732      -519.8934
   3   2.0000     -14.357845      -390.6968
   4   2.0000     -14.357195      -390.6791
   5   2.0000     -14.344400      -390.3310
   6   2.0000     -10.286767      -279.9172
   7   2.0000     -10.280681      -279.7516
   8   2.0000     -10.279523      -279.7200
   9   2.0000     -10.218739      -278.0660
  10   2.0000     -10.213661      -277.9278
  11   2.0000     -10.203044      -277.6389
  12   2.0000     -10.195717      -277.4396
  13   2.0000     -10.170465      -276.7524
  14   2.0000      -1.035708       -28.1831
  15   2.0000      -1.028991       -28.0003
  16   2.0000      -1.022229       -27.8163
  17   2.0000      -0.932947       -25.3868
  18   2.0000      -0.927986       -25.2518
  19   2.0000      -0.901246       -24.5242
  20   2.0000      -0.761715       -20.7273
  21   2.0000      -0.734662       -19.9912
  22   2.0000      -0.717557       -19.5257
  23   2.0000      -0.703852       -19.1528
  24   2.0000      -0.667902       -18.1745
  25   2.0000      -0.599363       -16.3095
  26   2.0000      -0.559147       -15.2152
  27   2.0000      -0.540433       -14.7059
  28   2.0000      -0.518892       -14.1198
  29   2.0000      -0.505887       -13.7659
  30   2.0000      -0.494025       -13.4431
  31   2.0000      -0.481074       -13.0907
  32   2.0000      -0.468531       -12.7494
  33   2.0000      -0.467355       -12.7174
  34   2.0000      -0.453851       -12.3499
  35   2.0000      -0.435662       -11.8550
  36   2.0000      -0.426015       -11.5925
  37   2.0000      -0.415941       -11.3183
  38   2.0000      -0.407213       -11.0808
  39   2.0000      -0.399174       -10.8621
  40   2.0000      -0.396160       -10.7801
  41   2.0000      -0.393881       -10.7180
  42   2.0000      -0.390575       -10.6281
  43   2.0000      -0.386304       -10.5119
  44   2.0000      -0.375157       -10.2086
  45   2.0000      -0.364337        -9.9141
  46   2.0000      -0.353731        -9.6255
  47   2.0000      -0.346916        -9.4401
  48   2.0000      -0.268004        -7.2927
  49   2.0000      -0.261647        -7.1198
  50   2.0000      -0.254548        -6.9266
  51   2.0000      -0.249732        -6.7956
  52   2.0000      -0.237063        -6.4508
  53   2.0000      -0.236313        -6.4304
  54   0.0000       0.023013         0.6262
  55   0.0000       0.028924         0.7871
  56   0.0000       0.033900         0.9225
  57   0.0000       0.092160         2.5078
  58   0.0000       0.103063         2.8045

MULLIKEN ATOMIC CHARGES
-----------------------
   0 C :    0.516350
   1 H :    0.195727
   2 H :    0.179097
   3 H :    0.188160
   4 O :   -0.539730
   5 C :   -0.565038
   6 N :   -0.330468
   7 C :   -0.279900
   8 H :    0.209819
   9 H :    0.200455
  10 C :   -0.278889
  11 H :    0.218481
  12 H :    0.200188
  13 C :    0.548165
  14 O :   -0.528473
  15 N :   -0.736728
  16 H :    0.384058
  17 H :    0.373490
  18 C :    0.539991
  19 O :   -0.538986
  20 N :   -0.371171
  21 C :   -0.336085
  22 H :    0.195521
  23 H :    0.176967
  24 H :    0.180448
  25 C :   -0.331276
  26 H :    0.173067
  27 H :    0.171741
  28 H :    0.185017
Sum of atomic charges:   -0.0000000

LOEWDIN ATOMIC CHARGES
----------------------
   0 C :    0.116812
   1 H :    0.156527
   2 H :    0.149263
   3 H :    0.152567
   4 O :   -0.340999
   5 C :   -0.397142
   6 N :   -0.047429
   7 C :   -0.192913
   8 H :    0.164034
   9 H :    0.155458
  10 C :   -0.190148
  11 H :    0.167862
  12 H :    0.156877
  13 C :    0.096037
  14 O :   -0.330626
  15 N :   -0.345506
  16 H :    0.279675
  17 H :    0.275544
  18 C :    0.101838
  19 O :   -0.338207
  20 N :   -0.075927
  21 C :   -0.276656
  22 H :    0.148807
  23 H :    0.134748
  24 H :    0.141537
  25 C :   -0.278823
  26 H :    0.135479
  27 H :    0.133694
  28 H :    0.147620

  Mayer bond orders larger than 0.100000
B(  0-C ,  4-O ) :   1.7973 B(  0-C ,  5-C ) :   0.9925 B(  0-C ,  6-N ) :   1.1591
B(  1-H ,  5-C ) :   0.9207 B(  2-H ,  5-C ) :   0.9400 B(  3-H ,  5-C ) :   0.9182
B(  6-N ,  7-C ) :   0.9656 B(  6-N , 10-C ) :   0.9734 B(  7-C ,  8-H ) :   0.8924
B(  7-C ,  9-H ) :   0.9095 B(  7-C , 18-C ) :   0.9177 B( 10-C , 11-H ) :   0.9019
B( 10-C , 12-H ) :   0.9128 B( 10-C , 13-C ) :   0.9034 B( 13-C , 14-O ) :   1.8367
B( 13-C , 15-N ) :   1.1878 B( 15-N , 16-H ) :   0.8078 B( 15-N , 17-H ) :   0.8116
B( 18-C , 19-O ) :   1.7843 B( 18-C , 20-N ) :   1.1825 B( 20-N , 21-C ) :   0.9535
B( 20-N , 25-C ) :   0.9471 B( 21-C , 22-H ) :   0.9252 B( 21-C , 23-H ) :   0.9305
B( 21-C , 24-H ) :   0.9338 B( 25-C , 26-H ) :   0.9370 B( 25-C , 27-H ) :   0.9368
B( 25-C , 28-H ) :   0.9256

Dispersion correction           -0.046414914
FINAL SINGLE POINT ENERGY      -703.506002820216

DIPOLE MOMENT
-------------
                                X             Y             Z
Electronic contribution:      6.55030      -0.56284      -0.49388
Nuclear contribution   :     -7.53057       3.70540       1.87835
                        -----------------------------------------
Total Dipole Moment    :     -0.98027       3.14255       1.38447
                        -----------------------------------------
Magnitude (a.u.)       :      3.57118
Magnitude (Debye)      :      9.07721

Dispersion correction in the Hessian             ... Starting D4

VIBRATIONAL FREQUENCIES
-----------------------

Scaling factor for frequencies =  1.000000000  (already applied!)

   0:         0.00 cm**-1
   1:         0.00 cm**-1
   2:         0.00 cm**-1
   3:         0.00 cm**-1
   4:         0.00 cm**-1
   5:         0.00 cm**-1
   6:        12.96 cm**-1
   7:        28.26 cm**-1
   8:        33.61 cm**-1
   9:        47.47 cm**-1
  10:        63.83 cm**-1
  11:        70.33 cm**-1
  12:        96.91 cm**-1
  13:       104.22 cm**-1
  14:       135.60 cm**-1
  15:       192.37 cm**-1
  16:       199.43 cm**-1
  17:       208.56 cm**-1
  18:       227.41 cm**-1
  19:       245.86 cm**-1
  20:       305.01 cm**-1
  21:       357.10 cm**-1
  22:       392.66 cm**-1
  23:       412.86 cm**-1
  24:       423.62 cm**-1
  25:       445.95 cm**-1
  26:       492.20 cm**-1
  27:       533.31 cm**-1
  28:       558.57 cm**-1
  29:       588.74 cm**-1
  30:       592.70 cm**-1
  31:       621.23 cm**-1
  32:       644.79 cm**-1
  33:       704.04 cm**-1
  34:       808.16 cm**-1
  35:       823.67 cm**-1
  36:       850.84 cm**-1
  37:       965.69 cm**-1
  38:       978.44 cm**-1
  39:       995.79 cm**-1
  40:      1015.72 cm**-1
  41:      1061.07 cm**-1
  42:      1087.65 cm**-1
  43:      1105.37 cm**-1
  44:      1123.70 cm**-1
  45:      1133.38 cm**-1
  46:      1167.38 cm**-1
  47:      1182.39 cm**-1
  48:      1237.40 cm**-1
  49:      1275.71 cm**-1
  50:      1288.41 cm**-1
  51:      1324.41 cm**-1
  52:      1354.98 cm**-1
  53:      1384.58 cm**-1
  54:      1405.92 cm**-1
  55:      1425.97 cm**-1
  56:      1442.00 cm**-1
  57:      1452.78 cm**-1
  58:      1468.69 cm**-1
  59:      1482.58 cm**-1
  60:      1488.85 cm**-1
  61:      1492.52 cm**-1
  62:      1502.37 cm**-1
  63:      1504.71 cm**-1
  64:      1511.55 cm**-1
  65:      1518.94 cm**-1
  66:      1521.13 cm**-1
  67:      1554.54 cm**-1
  68:      1635.67 cm**-1
  69:      1715.46 cm**-1
  70:      1725.12 cm**-1
  71:      1758.58 cm**-1
  72:      3039.09 cm**-1
  73:      3044.27 cm**-1
  74:      3062.83 cm**-1
  75:      3078.01 cm**-1
  76:      3093.68 cm**-1
  77:      3095.67 cm**-1
  78:      3106.27 cm**-1
  79:      3131.91 cm**-1
  80:      3137.50 cm**-1
  81:      3144.61 cm**-1
  82:      3171.64 cm**-1
  83:      3186.90 cm**-1
  84:      3192.44 cm**-1
  85:      3571.99 cm**-1
  86:      3692.21 cm**-1

IR SPECTRUM
-----------

 Mode   freq       eps      Int      T**2         TX        TY        TZ
       cm**-1   L/(mol*cm) km/mol    a.u.
----------------------------------------------------------------------------
  6:     12.96   0.000128    0.65  0.003093  (-0.048949 -0.019673 -0.017614)
  7:     28.26   0.003684   18.62  0.040676  ( 0.148690 -0.057344 -0.123607)
  8:     33.61   0.002214   11.19  0.020554  (-0.103329 -0.096215 -0.024900)
  9:     47.47   0.001805    9.12  0.011867  (-0.103741  0.028553  0.017014)
 10:     63.83   0.000827    4.18  0.004041  (-0.025902 -0.031608 -0.048696)
 11:     70.33   0.000352    1.78  0.001563  ( 0.021081 -0.032322 -0.008618)
 12:     96.91   0.001635    8.26  0.005266  (-0.031497 -0.001275 -0.065360)
 13:    104.22   0.000621    3.14  0.001860  ( 0.005468  0.017350 -0.039105)
 14:    135.60   0.000972    4.91  0.002237  (-0.036590 -0.029615 -0.004626)
 15:    192.37   0.002111   10.67  0.003425  ( 0.010467 -0.032025 -0.047855)
 16:    199.43   0.001067    5.39  0.001669  ( 0.015711 -0.012930 -0.035425)
 17:    208.56   0.066840  337.78  0.100013  (-0.240524  0.009783  0.205099)
 18:    227.41   0.001540    7.78  0.002113  ( 0.014816  0.043238  0.004941)
 19:    245.86   0.000260    1.32  0.000330  ( 0.005893 -0.006602 -0.015876)
 20:    305.01   0.002660   13.44  0.002722  (-0.042919  0.029549  0.002522)
 21:    357.10   0.001193    6.03  0.001043  ( 0.026710 -0.011272 -0.014224)
 22:    392.66   0.003258   16.46  0.002589  (-0.047060 -0.007674 -0.017763)
 23:    412.86   0.001080    5.46  0.000817  (-0.013022  0.016409  0.019437)
 24:    423.62   0.002213   11.19  0.001630  (-0.037118  0.013339  0.008647)
 25:    445.95   0.000716    3.62  0.000501  (-0.013049 -0.002900 -0.017955)
 26:    492.20   0.000183    0.93  0.000116  (-0.007939  0.002516 -0.006841)
 27:    533.31   0.007750   39.16  0.004535  ( 0.059158  0.002143 -0.032100)
 28:    558.57   0.005804   29.33  0.003242  (-0.027812 -0.048176 -0.012159)
 29:    588.74   0.003841   19.41  0.002036  ( 0.001463 -0.019094 -0.040856)
 30:    592.70   0.002781   14.05  0.001464  ( 0.006586  0.031612  0.020528)
 31:    621.23   0.001145    5.79  0.000575  ( 0.023214 -0.005995  0.000603)
 32:    644.79   0.001904    9.62  0.000921  ( 0.003105 -0.008134  0.029080)
 33:    704.04   0.001585    8.01  0.000703  (-0.021376  0.008851 -0.012935)
 34:    808.16   0.002684   13.57  0.001037  (-0.007456  0.009490 -0.029847)
 35:    823.67   0.001499    7.58  0.000568  (-0.005080  0.006326  0.022411)
 36:    850.84   0.001431    7.23  0.000525  ( 0.006306 -0.013152  0.017664)
 37:    965.69   0.000266    1.35  0.000086  (-0.001793  0.005835  0.006985)
 38:    978.44   0.002427   12.27  0.000774  (-0.005553 -0.026923  0.004292)
 39:    995.79   0.012094   61.12  0.003790  (-0.044388  0.020500  0.037409)
 40:   1015.72   0.008790   44.42  0.002701  ( 0.001251 -0.050050 -0.013926)
 41:   1061.07   0.002834   14.32  0.000833  ( 0.015921  0.004035  0.023740)
 42:   1087.65   0.002255   11.40  0.000647  ( 0.002180  0.003860 -0.025046)
 43:   1105.37   0.001472    7.44  0.000416  ( 0.019877  0.001841 -0.004137)
 44:   1123.70   0.001237    6.25  0.000343  ( 0.017276 -0.005955 -0.003081)
 45:   1133.38   0.000629    3.18  0.000173  ( 0.004126  0.002721 -0.012197)
 46:   1167.38   0.043750  221.10  0.011695  (-0.102583 -0.002785  0.034120)
 47:   1182.39   0.002003   10.12  0.000529  ( 0.020918 -0.009428  0.001482)
 48:   1237.40   0.002797   14.13  0.000705  (-0.023125 -0.008360  0.010031)
 49:   1275.71   0.042882  216.71  0.010490  ( 0.055410 -0.075403 -0.041643)
 50:   1288.41   0.013037   65.88  0.003158  (-0.039909 -0.023387 -0.031904)
 51:   1324.41   0.018909   95.56  0.004455  (-0.008977 -0.058908 -0.030078)
 52:   1354.98   0.016874   85.28  0.003886  (-0.054787 -0.029692  0.001747)
 53:   1384.58   0.009561   48.32  0.002155  (-0.034868  0.004400  0.030328)
 54:   1405.92   0.004078   20.61  0.000905  (-0.026861 -0.008320  0.010698)
 55:   1425.97   0.012683   64.09  0.002776  ( 0.028768  0.024595  0.036647)
 56:   1442.00   0.012442   62.88  0.002693  ( 0.042806  0.001604 -0.029285)
 57:   1452.78   0.017609   88.99  0.003783  ( 0.053193 -0.030585  0.004199)
 58:   1468.69   0.013501   68.23  0.002869  (-0.011237 -0.052083 -0.005462)
 59:   1482.58   0.013314   67.28  0.002802  ( 0.030171 -0.001280 -0.043480)
 60:   1488.85   0.023773  120.14  0.004983  ( 0.029078 -0.037038 -0.052589)
 61:   1492.52   0.004562   23.06  0.000954  ( 0.016235 -0.024964  0.008193)
 62:   1502.37   0.004913   24.83  0.001020  ( 0.021436 -0.020085  0.012553)
 63:   1504.71   0.002229   11.26  0.000462  ( 0.016333  0.001076  0.013938)
 64:   1511.55   0.003956   19.99  0.000817  ( 0.017895  0.019682  0.010442)
 65:   1518.94   0.008296   41.92  0.001704  ( 0.027631 -0.016403 -0.025920)
 66:   1521.13   0.011803   59.65  0.002421  (-0.029904  0.036046  0.015097)
 67:   1554.54   0.017523   88.55  0.003518  ( 0.058501 -0.007461 -0.006283)
 68:   1635.67   0.032954  166.53  0.006287  ( 0.024603  0.068828  0.030734)
 69:   1715.46   0.126974  641.67  0.023098  ( 0.067447  0.119395 -0.065528)
 70:   1725.12   0.088033  444.88  0.015925  (-0.033831  0.062662  0.104181)
 71:   1758.58   0.116185  587.15  0.020617  ( 0.042815 -0.133893  0.029273)
 72:   3039.09   0.007468   37.74  0.000767  (-0.008905  0.000370 -0.026218)
 73:   3044.27   0.019116   96.61  0.001960  ( 0.037804 -0.011853 -0.019747)
 74:   3062.83   0.000614    3.10  0.000063  ( 0.004470  0.003263 -0.005654)
 75:   3078.01   0.004492   22.70  0.000455  (-0.013478  0.001956  0.016429)
 76:   3093.68   0.004995   25.25  0.000504  (-0.001788  0.022296  0.001891)
 77:   3095.67   0.010600   53.57  0.001069  ( 0.010299  0.029939  0.008129)
 78:   3106.27   0.004814   24.33  0.000484  ( 0.011638  0.018645 -0.000705)
 79:   3131.91   0.001229    6.21  0.000122  ( 0.007787 -0.004224  0.006629)
 80:   3137.50   0.001424    7.20  0.000142  (-0.011101  0.003463  0.002528)
 81:   3144.61   0.001170    5.91  0.000116  (-0.010621 -0.000517  0.001730)
 82:   3171.64   0.002920   14.75  0.000287  (-0.003689  0.015169  0.006599)
 83:   3186.90   0.002825   14.28  0.000277  (-0.014618  0.006868 -0.003976)
 84:   3192.44   0.001116    5.64  0.000109  (-0.002930  0.003713 -0.009311)
 85:   3571.99   0.018709   94.55  0.001635  (-0.006751 -0.038823 -0.009040)
 86:   3692.21   0.017112   86.48  0.001446  (-0.023732  0.012825 -0.026806)

--------------------------
THERMOCHEMISTRY AT 298.15K
--------------------------

Temperature         ... 298.15 K
Pressure            ... 1.00 atm
Total Mass          ... 201.23 AMU

Throughout the following assumptions are being made:
  (1) The electronic state is orbitally nondegenerate
  (2) There are no thermally accessible electronically excited states
  (3) Hindered rotations indicated by low frequency modes are not
      treated as such but are treated as vibrations and this may
      cause some error
  (4) All equations used are the standard statistical mechanics
      equations for an ideal gas
  (5) All vibrations are strictly harmonic

freq.      12.96  E(vib)   ...       0.57
freq.      28.26  E(vib)   ...       0.55
freq.      33.61  E(vib)   ...       0.55
freq.      47.47  E(vib)   ...       0.53
freq.      63.83  E(vib)   ...       0.51
freq.      70.33  E(vib)   ...       0.50
freq.      96.91  E(vib)   ...       0.46
freq.     104.22  E(vib)   ...       0.46
freq.     135.60  E(vib)   ...       0.42
freq.     192.37  E(vib)   ...       0.36
freq.     199.43  E(vib)   ...       0.35
freq.     208.56  E(vib)   ...       0.34
freq.     227.41  E(vib)   ...       0.33
freq.     245.86  E(vib)   ...       0.31
freq.     305.01  E(vib)   ...       0.26
freq.     357.10  E(vib)   ...       0.22
freq.     392.66  E(vib)   ...       0.20
freq.     412.86  E(vib)   ...       0.19
freq.     423.62  E(vib)   ...       0.18
freq.     445.95  E(vib)   ...       0.17
freq.     492.20  E(vib)   ...       0.14
freq.     533.31  E(vib)   ...       0.13
freq.     558.57  E(vib)   ...       0.12
freq.     588.74  E(vib)   ...       0.10
freq.     592.70  E(vib)   ...       0.10
freq.     621.23  E(vib)   ...       0.09
freq.     644.79  E(vib)   ...       0.09
freq.     704.04  E(vib)   ...       0.07
freq.     808.16  E(vib)   ...       0.05
freq.     823.67  E(vib)   ...       0.05
freq.     850.84  E(vib)   ...       0.04
freq.     965.69  E(vib)   ...       0.03
freq.     978.44  E(vib)   ...       0.03
freq.     995.79  E(vib)   ...       0.02
freq.    1015.72  E(vib)   ...       0.02
freq.    1061.07  E(vib)   ...       0.02
freq.    1087.65  E(vib)   ...       0.02
freq.    1105.37  E(vib)   ...       0.02
freq.    1123.70  E(vib)   ...       0.01
freq.    1133.38  E(vib)   ...       0.01
freq.    1167.38  E(vib)   ...       0.01
freq.    1182.39  E(vib)   ...       0.01
freq.    1237.40  E(vib)   ...       0.01
freq.    1275.71  E(vib)   ...       0.01
freq.    1288.41  E(vib)   ...       0.01
freq.    1324.41  E(vib)   ...       0.01
freq.    1354.98  E(vib)   ...       0.01
freq.    1384.58  E(vib)   ...       0.00
freq.    1405.92  E(vib)   ...       0.00
freq.    1425.97  E(vib)   ...       0.00
freq.    1442.00  E(vib)   ...       0.00
freq.    1452.78  E(vib)   ...       0.00
freq.    1468.69  E(vib)   ...       0.00
freq.    1482.58  E(vib)   ...       0.00
freq.    1488.85  E(vib)   ...       0.00
freq.    1492.52  E(vib)   ...       0.00
freq.    1502.37  E(vib)   ...       0.00
freq.    1504.71  E(vib)   ...       0.00
freq.    1511.55  E(vib)   ...       0.00
freq.    1518.94  E(vib)   ...       0.00
freq.    1521.13  E(vib)   ...       0.00
freq.    1554.54  E(vib)   ...       0.00
freq.    1635.67  E(vib)   ...       0.00
freq.    1715.46  E(vib)   ...       0.00
freq.    1725.12  E(vib)   ...       0.00
freq.    1758.58  E(vib)   ...       0.00
freq.    3039.09  E(vib)   ...       0.00
freq.    3044.27  E(vib)   ...       0.00
freq.    3062.83  E(vib)   ...       0.00
freq.    3078.01  E(vib)   ...       0.00
freq.    3093.68  E(vib)   ...       0.00
freq.    3095.67  E(vib)   ...       0.00
freq.    3106.27  E(vib)   ...       0.00
freq.    3131.91  E(vib)   ...       0.00
freq.    3137.50  E(vib)   ...       0.00
freq.    3144.61  E(vib)   ...       0.00
freq.    3171.64  E(vib)   ...       0.00
freq.    3186.90  E(vib)   ...       0.00
freq.    3192.44  E(vib)   ...       0.00
freq.    3571.99  E(vib)   ...       0.00
freq.    3692.21  E(vib)   ...       0.00

------------
INNER ENERGY
------------

The inner energy is: U= E(el) + E(ZPE) + E(vib) + E(rot) + E(trans)
    E(el)   - is the total energy from the electronic structure calculation
              = E(kin-el) + E(nuc-el) + E(el-el) + E(nuc-nuc)
    E(ZPE)  - the the zero temperature vibrational energy from the frequency calculation
    E(vib)  - the the finite temperature correction to E(ZPE) due to population
              of excited vibrational states
    E(rot)  - is the rotational thermal energy
    E(trans)- is the translational thermal energy

Summary of contributions to the inner energy U:
Electronic energy                ...   -703.50600282 Eh
Zero point energy                ...      0.24207964 Eh     151.91 kcal/mol
Thermal vibrational correction   ...      0.01388886 Eh       8.72 kcal/mol
Thermal rotational correction    ...      0.00141627 Eh       0.89 kcal/mol
Thermal translational correction ...      0.00141627 Eh       0.89 kcal/mol
-----------------------------------------------------------------------
Total thermal energy                   -703.24720177 Eh

Summary of corrections to the electronic energy:
(perhaps to be used in another calculation)
Total thermal correction                  0.01672141 Eh      10.49 kcal/mol
Non-thermal (ZPE) correction              0.24207964 Eh     151.91 kcal/mol
-----------------------------------------------------------------------
Total correction                          0.25880105 Eh     162.40 kcal/mol

--------
ENTHALPY
--------

The enthalpy is H = U + kB*T
                kB is Boltzmann's constant
Total free energy                 ...   -703.24720177 Eh
Thermal Enthalpy correction       ...      0.00094421 Eh       0.59 kcal/mol
-----------------------------------------------------------------------
Total Enthalpy                    ...   -703.24625756 Eh

Note: Only C1 symmetry has been detected, increase convergence thresholds
      if your molecule has a higher symmetry. Symmetry factor of 1.0 is
      used for the rotational entropy correction.

Note: Rotational entropy computed according to Herzberg
Infrared and Raman Spectra, Chapter V,1, Van Nostrand Reinhold, 1945
Point Group:  C1, Symmetry Number:   1
Rotational constants in cm-1:     0.031641     0.013793     0.011501

Vibrational entropy computed according to the QRRHO of S. Grimme
Chem.Eur.J. 2012 18 9955

-------
ENTROPY
-------

The entropy contributions are T*S = T*(S(el)+S(vib)+S(rot)+S(trans))

                             ****ORCA TERMINATED NORMALLY****
TOTAL RUN TIME: 0 days 0 hours 26 minutes 0 seconds 574 msec
