                         Program Version 5.0.4 -  RELEASE  -
|  1> ! OPT FREQ B3LYP 6-31G(d) D4 AUTOAUX CPCM(water)
|  2>
|  3> %PAL NPROCS 4 END
|  4>
|  5> %maxcore 3375
|  6>
|  7> *xyzfile 0 1 /users/fjb15167/WWenergy/structures/Nfe.xyz
|  8>
|  9>                          ****END OF INPUT****
 Total Charge           Charge          ....    0
 Multiplicity           Mult            ....    1
 Number of Electrons    NEL             ....  134
Dispersion correction           -0.071779314
FINAL SINGLE POINT ENERGY      -805.090060922316
Dispersion correction            ... Starting D4
Dispersion correction           -0.070895136
FINAL SINGLE POINT ENERGY      -805.090531223922
Dispersion correction            ... Starting D4
Dispersion correction           -0.071295223
FINAL SINGLE POINT ENERGY      -805.090752525774
Dispersion correction            ... Starting D4
FINAL SINGLE POINT ENERGY      -805.090802632270
FINAL SINGLE POINT ENERGY      -805.090831354233
FINAL SINGLE POINT ENERGY      -805.090831799308
Dispersion correction           -0.071298276
FINAL SINGLE POINT ENERGY      -805.090833121353
Dispersion correction            ... Starting D4
Dispersion correction           -0.071301735
FINAL SINGLE POINT ENERGY      -805.090835957303
Dispersion correction            ... Starting D4
                    ***********************HURRAY********************

CARTESIAN COORDINATES (ANGSTROEM)
---------------------------------
  C     -1.490482    3.203479   -0.383625
  H     -0.742221    2.924920   -1.131388
  H     -0.976647    3.755331    0.412494
  H     -2.232896    3.857709   -0.843463
  C     -2.217193    1.996955    0.181782
  O     -3.454301    1.944573    0.186024
  N     -1.451937    0.984316    0.690308
  C     -2.103262   -0.151568    1.340788
  H     -1.817952   -0.177462    2.397226
  H     -3.180855   -0.004370    1.271241
  C      0.013957    0.994129    0.711470
  H      0.377348    2.011928    0.873411
  H      0.324524    0.404667    1.579282
  C      0.661678    0.402272   -0.559228
  H      0.196148   -0.561681   -0.784552
  H      0.466489    1.061408   -1.412242
  C      2.147299    0.218239   -0.361932
  C      2.627562   -0.916848    0.308047
  C      3.063857    1.186424   -0.790682
  C      3.993888   -1.082256    0.539902
  H      1.919182   -1.670207    0.646932
  C      4.432600    1.024378   -0.560467
  H      2.701463    2.070058   -1.311827
  C      4.901353   -0.110951    0.105472
  H      4.351445   -1.969731    1.056129
  H      5.131884    1.783007   -0.903175
  H      5.965965   -0.239456    0.283174
  C     -1.655882   -1.499961    0.761593
  N     -2.095687   -1.848378   -0.475425
  O     -0.897997   -2.218767    1.429083
  C     -2.892095   -0.997578   -1.352829
  H     -2.264315   -0.566826   -2.144700
  H     -3.671096   -1.606364   -1.824874
  H     -3.368756   -0.185703   -0.806713
  C     -1.581900   -3.066169   -1.093774
  H     -0.824988   -2.822018   -1.851725
  H     -1.132895   -3.694175   -0.326184
  H     -2.403281   -3.602326   -1.580552

 Multiplicity           Mult            ....    1
 Number of Electrons    NEL             ....  134
 Basis Dimension        Dim             ....  292

ORBITAL ENERGIES
----------------

  NO   OCC          E(Eh)            E(eV)
   0   2.0000     -19.109960      -520.0085
   1   2.0000     -19.109155      -519.9865
   2   2.0000     -14.361321      -390.7914
   3   2.0000     -14.360604      -390.7719
   4   2.0000     -10.284054      -279.8433
   5   2.0000     -10.280818      -279.7553
   6   2.0000     -10.212413      -277.8939
   7   2.0000     -10.211754      -277.8760
   8   2.0000     -10.199195      -277.5342
   9   2.0000     -10.196228      -277.4535
  10   2.0000     -10.185863      -277.1714
  11   2.0000     -10.177701      -276.9493
  12   2.0000     -10.177625      -276.9473
  13   2.0000     -10.176470      -276.9158
  14   2.0000     -10.176433      -276.9148
  15   2.0000     -10.175950      -276.9017
  16   2.0000     -10.175291      -276.8837
  17   2.0000     -10.173028      -276.8222
  18   2.0000      -1.033057       -28.1109
  19   2.0000      -1.026304       -27.9272
  20   2.0000      -0.935091       -25.4451
  21   2.0000      -0.927360       -25.2347
  22   2.0000      -0.849475       -23.1154
  23   2.0000      -0.782607       -21.2958
  24   2.0000      -0.757951       -20.6249
  25   2.0000      -0.736612       -20.0442
  26   2.0000      -0.724388       -19.7116
  27   2.0000      -0.714148       -19.4330
  28   2.0000      -0.704700       -19.1759
  29   2.0000      -0.671332       -18.2679
  30   2.0000      -0.643395       -17.5077
  31   2.0000      -0.597718       -16.2647
  32   2.0000      -0.573976       -15.6187
  33   2.0000      -0.551687       -15.0122
  34   2.0000      -0.537528       -14.6269
  35   2.0000      -0.512637       -13.9496
  36   2.0000      -0.502644       -13.6776
  37   2.0000      -0.484681       -13.1888
  38   2.0000      -0.478041       -13.0082
  39   2.0000      -0.464992       -12.6531
  40   2.0000      -0.456975       -12.4349
  41   2.0000      -0.453395       -12.3375
  42   2.0000      -0.451545       -12.2872
  43   2.0000      -0.441159       -12.0046
  44   2.0000      -0.415475       -11.3056
  45   2.0000      -0.414561       -11.2808
  46   2.0000      -0.408993       -11.1293
  47   2.0000      -0.404659       -11.0113
  48   2.0000      -0.402665       -10.9571
  49   2.0000      -0.395659       -10.7664
  50   2.0000      -0.394223       -10.7274
  51   2.0000      -0.391304       -10.6479
  52   2.0000      -0.389582       -10.6011
  53   2.0000      -0.380349       -10.3498
  54   2.0000      -0.373765       -10.1707
  55   2.0000      -0.364314        -9.9135
  56   2.0000      -0.353455        -9.6180
  57   2.0000      -0.349226        -9.5029
  58   2.0000      -0.345085        -9.3902
  59   2.0000      -0.330806        -9.0017
  60   2.0000      -0.327038        -8.8992
  61   2.0000      -0.260285        -7.0827
  62   2.0000      -0.253213        -6.8903
  63   2.0000      -0.245675        -6.6852
  64   2.0000      -0.244343        -6.6489
  65   2.0000      -0.238406        -6.4874
  66   2.0000      -0.230947        -6.2844
  67   0.0000       0.001605         0.0437
  68   0.0000       0.003917         0.1066
  69   0.0000       0.015078         0.4103
  70   0.0000       0.028347         0.7714
  71   0.0000       0.086480         2.3532

MULLIKEN ATOMIC CHARGES
-----------------------
   0 C :   -0.564403
   1 H :    0.194959
   2 H :    0.199216
   3 H :    0.181586
   4 C :    0.530250
   5 O :   -0.538314
   6 N :   -0.367497
   7 C :   -0.250862
   8 H :    0.182228
   9 H :    0.206121
  10 C :   -0.168271
  11 H :    0.183680
  12 H :    0.178376
  13 C :   -0.370898
  14 H :    0.177366
  15 H :    0.168843
  16 C :    0.148788
  17 C :   -0.194986
  18 C :   -0.197667
  19 C :   -0.151446
  20 H :    0.143900
  21 C :   -0.150777
  22 H :    0.146901
  23 C :   -0.151311
  24 H :    0.149853
  25 H :    0.149680
  26 H :    0.148892
  27 C :    0.518924
  28 N :   -0.357737
  29 O :   -0.544081
  30 C :   -0.345840
  31 H :    0.173127
  32 H :    0.175248
  33 H :    0.194304
  34 C :   -0.331643
  35 H :    0.173899
  36 H :    0.185005
  37 H :    0.174587
Sum of atomic charges:   -0.0000000

LOEWDIN ATOMIC CHARGES
----------------------
   0 C :   -0.393031
   1 H :    0.153552
   2 H :    0.158965
   3 H :    0.150487
   4 C :    0.115773
   5 O :   -0.339849
   6 N :   -0.068700
   7 C :   -0.178319
   8 H :    0.145659
   9 H :    0.160325
  10 C :   -0.155813
  11 H :    0.143950
  12 H :    0.141779
  13 C :   -0.238106
  14 H :    0.141402
  15 H :    0.136139
  16 C :   -0.023326
  17 C :   -0.142617
  18 C :   -0.143069
  19 C :   -0.137499
  20 H :    0.136920
  21 C :   -0.137786
  22 H :    0.138677
  23 C :   -0.143411
  24 H :    0.139771
  25 H :    0.139784
  26 H :    0.139438
  27 C :    0.094493
  28 N :   -0.067200
  29 O :   -0.342442
  30 C :   -0.284940
  31 H :    0.133273
  32 H :    0.138089
  33 H :    0.148722
  34 C :   -0.279794
  35 H :    0.133341
  36 H :    0.147134
  37 H :    0.138232

  Mayer bond orders larger than 0.100000
B(  0-C ,  1-H ) :   0.9176 B(  0-C ,  2-H ) :   0.9200 B(  0-C ,  3-H ) :   0.9385
B(  0-C ,  4-C ) :   0.9951 B(  4-C ,  5-O ) :   1.7435 B(  4-C ,  6-N ) :   1.1663
B(  6-N ,  7-C ) :   0.9530 B(  6-N , 10-C ) :   0.9241 B(  7-C ,  8-H ) :   0.9156
B(  7-C ,  9-H ) :   0.8930 B(  7-C , 27-C ) :   0.9381 B( 10-C , 11-H ) :   0.9210
B( 10-C , 12-H ) :   0.9214 B( 10-C , 13-C ) :   0.9737 B( 13-C , 14-H ) :   0.9178
B( 13-C , 15-H ) :   0.9232 B( 13-C , 16-C ) :   0.9745 B( 16-C , 17-C ) :   1.4259
B( 16-C , 18-C ) :   1.4402 B( 17-C , 19-C ) :   1.4421 B( 17-C , 20-H ) :   0.9141
B( 18-C , 21-C ) :   1.4325 B( 18-C , 22-H ) :   0.9220 B( 19-C , 23-C ) :   1.4436
B( 19-C , 24-H ) :   0.9265 B( 21-C , 23-C ) :   1.4526 B( 21-C , 25-H ) :   0.9263
B( 23-C , 26-H ) :   0.9272 B( 27-C , 28-N ) :   1.2016 B( 27-C , 29-O ) :   1.7359
B( 28-N , 30-C ) :   0.9494 B( 28-N , 34-C ) :   0.9460 B( 30-C , 31-H ) :   0.9301
B( 30-C , 32-H ) :   0.9339 B( 30-C , 33-H ) :   0.9033 B( 34-C , 35-H ) :   0.9331
B( 34-C , 36-H ) :   0.9265 B( 34-C , 37-H ) :   0.9368

Dispersion correction           -0.071289346
FINAL SINGLE POINT ENERGY      -805.090836573806

DIPOLE MOMENT
-------------
                                X             Y             Z
Electronic contribution:      1.83415      -0.28303       5.33401
Nuclear contribution   :     -1.07196       0.81044      -6.62756
                        -----------------------------------------
Total Dipole Moment    :      0.76219       0.52741      -1.29355
                        -----------------------------------------
Magnitude (a.u.)       :      1.59134
Magnitude (Debye)      :      4.04486

Dispersion correction in the Hessian             ... Starting D4

VIBRATIONAL FREQUENCIES
-----------------------

Scaling factor for frequencies =  1.000000000  (already applied!)

   0:         0.00 cm**-1
   1:         0.00 cm**-1
   2:         0.00 cm**-1
   3:         0.00 cm**-1
   4:         0.00 cm**-1
   5:         0.00 cm**-1
   6:        21.54 cm**-1
   7:        35.36 cm**-1
   8:        43.54 cm**-1
   9:        63.56 cm**-1
  10:        79.68 cm**-1
  11:        84.53 cm**-1
  12:        87.53 cm**-1
  13:       114.87 cm**-1
  14:       120.17 cm**-1
  15:       132.91 cm**-1
  16:       162.39 cm**-1
  17:       170.62 cm**-1
  18:       217.89 cm**-1
  19:       238.85 cm**-1
  20:       271.99 cm**-1
  21:       291.25 cm**-1
  22:       332.67 cm**-1
  23:       354.26 cm**-1
  24:       368.09 cm**-1
  25:       389.06 cm**-1
  26:       418.43 cm**-1
  27:       435.46 cm**-1
  28:       462.94 cm**-1
  29:       495.61 cm**-1
  30:       516.38 cm**-1
  31:       562.86 cm**-1
  32:       585.47 cm**-1
  33:       600.69 cm**-1
  34:       634.21 cm**-1
  35:       642.29 cm**-1
  36:       701.52 cm**-1
  37:       718.65 cm**-1
  38:       760.12 cm**-1
  39:       770.50 cm**-1
  40:       781.36 cm**-1
  41:       813.97 cm**-1
  42:       860.31 cm**-1
  43:       869.36 cm**-1
  44:       932.03 cm**-1
  45:       962.54 cm**-1
  46:       980.27 cm**-1
  47:      1002.64 cm**-1
  48:      1003.57 cm**-1
  49:      1010.18 cm**-1
  50:      1015.33 cm**-1
  51:      1028.54 cm**-1
  52:      1034.11 cm**-1
  53:      1055.73 cm**-1
  54:      1061.30 cm**-1
  55:      1086.87 cm**-1
  56:      1091.15 cm**-1
  57:      1121.12 cm**-1
  58:      1135.30 cm**-1
  59:      1170.30 cm**-1
  60:      1182.32 cm**-1
  61:      1184.85 cm**-1
  62:      1205.02 cm**-1
  63:      1218.64 cm**-1
  64:      1235.82 cm**-1
  65:      1250.96 cm**-1
  66:      1285.56 cm**-1
  67:      1290.32 cm**-1
  68:      1332.92 cm**-1
  69:      1336.28 cm**-1
  70:      1361.27 cm**-1
  71:      1370.72 cm**-1
  72:      1373.67 cm**-1
  73:      1406.62 cm**-1
  74:      1413.54 cm**-1
  75:      1442.27 cm**-1
  76:      1457.95 cm**-1
  77:      1474.84 cm**-1
  78:      1482.66 cm**-1
  79:      1489.67 cm**-1
  80:      1497.76 cm**-1
  81:      1501.47 cm**-1
  82:      1504.73 cm**-1
  83:      1510.30 cm**-1
  84:      1512.14 cm**-1
  85:      1518.34 cm**-1
  86:      1529.98 cm**-1
  87:      1532.85 cm**-1
  88:      1543.12 cm**-1
  89:      1555.27 cm**-1
  90:      1639.94 cm**-1
  91:      1661.02 cm**-1
  92:      1701.43 cm**-1
  93:      1706.89 cm**-1
  94:      3036.27 cm**-1
  95:      3040.74 cm**-1
  96:      3065.36 cm**-1
  97:      3072.95 cm**-1
  98:      3084.82 cm**-1
  99:      3087.95 cm**-1
 100:      3098.46 cm**-1
 101:      3106.57 cm**-1
 102:      3117.82 cm**-1
 103:      3133.80 cm**-1
 104:      3140.32 cm**-1
 105:      3168.23 cm**-1
 106:      3171.67 cm**-1
 107:      3178.95 cm**-1
 108:      3181.10 cm**-1
 109:      3190.79 cm**-1
 110:      3194.39 cm**-1
 111:      3196.37 cm**-1
 112:      3198.38 cm**-1
 113:      3209.67 cm**-1

IR SPECTRUM
-----------

 Mode   freq       eps      Int      T**2         TX        TY        TZ
       cm**-1   L/(mol*cm) km/mol    a.u.
----------------------------------------------------------------------------
  6:     21.54   0.000051    0.26  0.000732  (-0.026100 -0.001904 -0.006857)
  7:     35.36   0.000082    0.42  0.000726  ( 0.007102  0.022310 -0.013325)
  8:     43.54   0.000680    3.44  0.004873  ( 0.067925 -0.007338 -0.014334)
  9:     63.56   0.001585    8.01  0.007783  ( 0.043886  0.045285 -0.061695)
 10:     79.68   0.000165    0.83  0.000647  ( 0.004660 -0.011829 -0.022029)
 11:     84.53   0.001179    5.96  0.004351  ( 0.033283  0.056945  0.000801)
 12:     87.53   0.000168    0.85  0.000600  ( 0.012002 -0.016393 -0.013679)
 13:    114.87   0.000602    3.04  0.001636  (-0.005578 -0.015621 -0.036884)
 14:    120.17   0.002157   10.90  0.005601  (-0.007735  0.053952  0.051288)
 15:    132.91   0.001320    6.67  0.003099  ( 0.019956  0.050521  0.012160)
 16:    162.39   0.000385    1.95  0.000740  ( 0.005080  0.023892 -0.011985)
 17:    170.62   0.000037    0.19  0.000067  (-0.004999  0.000267 -0.006508)
 18:    217.89   0.000072    0.36  0.000103  (-0.006659  0.001798  0.007438)
 19:    238.85   0.000747    3.77  0.000976  ( 0.020999  0.021768 -0.007814)
 20:    271.99   0.002615   13.22  0.003001  ( 0.040754  0.036237 -0.005162)
 21:    291.25   0.000314    1.58  0.000336  ( 0.009097 -0.003675  0.015482)
 22:    332.67   0.000630    3.18  0.000591  (-0.000276 -0.022063  0.010195)
 23:    354.26   0.002268   11.46  0.001998  ( 0.020985  0.010895  0.037934)
 24:    368.09   0.002085   10.54  0.001768  (-0.009927  0.033274  0.023706)
 25:    389.06   0.002521   12.74  0.002022  ( 0.010524 -0.020106 -0.038825)
 26:    418.43   0.000025    0.13  0.000019  ( 0.004108 -0.000144 -0.001295)
 27:    435.46   0.000224    1.13  0.000160  ( 0.003247  0.011635  0.003802)
 28:    462.94   0.003026   15.29  0.002040  (-0.042273  0.015546  0.003363)
 29:    495.61   0.004328   21.87  0.002725  (-0.028568 -0.039813  0.017991)
 30:    516.38   0.003733   18.86  0.002256  (-0.014147  0.011518  0.043853)
 31:    562.86   0.003227   16.31  0.001789  ( 0.028811 -0.030085  0.007341)
 32:    585.47   0.002658   13.43  0.001417  ( 0.001937  0.025464  0.027650)
 33:    600.69   0.003587   18.13  0.001864  (-0.014952  0.027633  0.029607)
 34:    634.21   0.000062    0.31  0.000031  (-0.003894 -0.003078 -0.002422)
 35:    642.29   0.002736   13.83  0.001329  (-0.011789  0.010265 -0.032940)
 36:    701.52   0.001017    5.14  0.000453  ( 0.018949  0.002419  0.009364)
 37:    718.65   0.007798   39.41  0.003386  ( 0.002408 -0.029507 -0.050099)
 38:    760.12   0.006999   35.37  0.002873  (-0.000878 -0.031644 -0.043259)
 39:    770.50   0.001733    8.76  0.000702  (-0.014110 -0.008370  0.020805)
 40:    781.36   0.001738    8.78  0.000694  ( 0.000949 -0.025832 -0.005102)
 41:    813.97   0.002777   14.03  0.001065  ( 0.022298  0.005137  0.023262)
 42:    860.31   0.002579   13.03  0.000935  (-0.018089 -0.008760 -0.023052)
 43:    869.36   0.000076    0.38  0.000027  ( 0.004265  0.002892  0.000857)
 44:    932.03   0.000358    1.81  0.000120  (-0.000156 -0.005559 -0.009428)
 45:    962.54   0.000856    4.32  0.000277  ( 0.011841  0.003529  0.011167)
 46:    980.27   0.000006    0.03  0.000002  (-0.001341  0.000072  0.000152)
 47:   1002.64   0.004308   21.77  0.001341  (-0.018299 -0.009766 -0.030175)
 48:   1003.57   0.000328    1.66  0.000102  (-0.008167  0.000245 -0.005934)
 49:   1010.18   0.006074   30.70  0.001876  ( 0.027152 -0.023248 -0.024468)
 50:   1015.33   0.000075    0.38  0.000023  (-0.003091  0.003431 -0.001369)
 51:   1028.54   0.009084   45.91  0.002756  (-0.023639  0.042320 -0.020157)
 52:   1034.11   0.005272   26.64  0.001591  (-0.021372  0.015645  0.029825)
 53:   1055.73   0.001698    8.58  0.000502  ( 0.022082 -0.001484  0.003491)
 54:   1061.30   0.002186   11.05  0.000643  ( 0.001463  0.011471  0.022564)
 55:   1086.87   0.003633   18.36  0.001043  ( 0.022316 -0.014511  0.018289)
 56:   1091.15   0.001515    7.66  0.000433  ( 0.004461 -0.015405 -0.013268)
 57:   1121.12   0.002780   14.05  0.000774  ( 0.011741 -0.006022  0.024488)
 58:   1135.30   0.000623    3.15  0.000171  (-0.001586  0.012884 -0.001673)
 59:   1170.30   0.014406   72.80  0.003841  ( 0.039987  0.020727  0.042576)
 60:   1182.32   0.000069    0.35  0.000018  ( 0.002611 -0.001104  0.003192)
 61:   1184.85   0.000860    4.35  0.000227  (-0.007821 -0.003251 -0.012445)
 62:   1205.02   0.000018    0.09  0.000005  (-0.000210 -0.000120 -0.002121)
 63:   1218.64   0.010538   53.26  0.002699  (-0.000917  0.019677 -0.048068)
 64:   1235.82   0.002260   11.42  0.000571  ( 0.015780 -0.017531  0.003795)
 65:   1250.96   0.014637   73.97  0.003651  ( 0.035930 -0.047324  0.010996)
 66:   1285.56   0.007980   40.33  0.001937  ( 0.011236 -0.009197 -0.041547)
 67:   1290.32   0.032699  165.25  0.007908  ( 0.013378 -0.086124  0.017662)
 68:   1332.92   0.000060    0.30  0.000014  (-0.001094 -0.002282  0.002769)
 69:   1336.28   0.003385   17.11  0.000790  ( 0.019200 -0.020430  0.002112)
 70:   1361.27   0.000315    1.59  0.000072  ( 0.000151 -0.007761  0.003448)
 71:   1370.72   0.000743    3.76  0.000169  ( 0.007821 -0.006138  0.008387)
 72:   1373.67   0.000336    1.70  0.000076  (-0.003796 -0.007539 -0.002234)
 73:   1406.62   0.012847   64.92  0.002850  (-0.051701  0.009646  0.009166)
 74:   1413.54   0.006325   31.96  0.001396  ( 0.020877 -0.028761  0.011541)
 75:   1442.27   0.015578   78.73  0.003371  (-0.016690 -0.021856 -0.051131)
 76:   1457.95   0.016951   85.67  0.003628  ( 0.005547  0.047357  0.036808)
 77:   1474.84   0.048814  246.69  0.010329  (-0.060744  0.076672 -0.027571)
 78:   1482.66   0.003781   19.11  0.000796  (-0.026705 -0.008975  0.001429)
 79:   1489.67   0.000683    3.45  0.000143  ( 0.007704 -0.001374 -0.009042)
 80:   1497.76   0.003276   16.56  0.000683  ( 0.002668 -0.018890  0.017850)
 81:   1501.47   0.001074    5.43  0.000223  (-0.008801 -0.004170 -0.011327)
 82:   1504.73   0.003662   18.50  0.000759  ( 0.005721  0.020263 -0.017777)
 83:   1510.30   0.002724   13.77  0.000563  (-0.007028  0.022596 -0.001701)
 84:   1512.14   0.002628   13.28  0.000542  (-0.002639  0.023007  0.002464)
 85:   1518.34   0.003573   18.06  0.000734  (-0.024500 -0.011415  0.001965)
 86:   1529.98   0.005853   29.58  0.001194  ( 0.029333 -0.006369  0.017111)
 87:   1532.85   0.007405   37.42  0.001508  (-0.013647 -0.019002  0.030988)
 88:   1543.12   0.005015   25.35  0.001014  (-0.031083  0.003626 -0.005910)
 89:   1555.27   0.017548   88.68  0.003521  (-0.004258  0.037223  0.046014)
 90:   1639.94   0.000237    1.20  0.000045  (-0.000559  0.005451 -0.003878)
 91:   1661.02   0.002948   14.90  0.000554  ( 0.023118 -0.003068  0.003168)
 92:   1701.43   0.210655  1064.56  0.038637  (-0.158181  0.053809 -0.103537)
 93:   1706.89   0.038845  196.30  0.007102  (-0.056797 -0.005895  0.061977)
 94:   3036.27   0.005339   26.98  0.000549  (-0.014048  0.016464 -0.008961)
 95:   3040.74   0.018452   93.25  0.001894  ( 0.004861 -0.006444 -0.042762)
 96:   3065.36   0.000706    3.57  0.000072  ( 0.006940  0.004471  0.001923)
 97:   3072.95   0.003703   18.71  0.000376  ( 0.009610 -0.007587  0.015037)
 98:   3084.82   0.003339   16.87  0.000338  (-0.008435 -0.010010  0.012900)
 99:   3087.95   0.013882   70.15  0.001403  ( 0.018221 -0.000206  0.032724)
100:   3098.46   0.011354   57.38  0.001143  ( 0.028035  0.018704  0.002767)
101:   3106.57   0.005802   29.32  0.000583  (-0.019179 -0.014486 -0.002270)
102:   3117.82   0.001429    7.22  0.000143  ( 0.004976  0.010861 -0.000512)
103:   3133.80   0.001934    9.77  0.000193  (-0.001087  0.003437  0.013401)
104:   3140.32   0.008338   42.14  0.000829  ( 0.003124  0.027848 -0.006581)
105:   3168.23   0.001646    8.32  0.000162  ( 0.001454  0.011741  0.004706)
106:   3171.67   0.002905   14.68  0.000286  ( 0.014216 -0.008460  0.003488)
107:   3178.95   0.001930    9.75  0.000189  ( 0.012107 -0.004839  0.004409)
108:   3181.10   0.000701    3.54  0.000069  ( 0.001120  0.007402 -0.003567)
109:   3190.79   0.002336   11.81  0.000228  (-0.014111  0.003339 -0.004267)
110:   3194.39   0.001171    5.92  0.000114  ( 0.002047 -0.009669  0.004092)
111:   3196.37   0.000467    2.36  0.000046  (-0.006178 -0.002679 -0.000463)
112:   3198.38   0.011430   57.76  0.001115  (-0.004969 -0.029242  0.015345)
113:   3209.67   0.005685   28.73  0.000553  (-0.023242  0.002328 -0.002662)

--------------------------
THERMOCHEMISTRY AT 298.15K
--------------------------

Temperature         ... 298.15 K
Pressure            ... 1.00 atm
Total Mass          ... 248.33 AMU

Throughout the following assumptions are being made:
  (1) The electronic state is orbitally nondegenerate
  (2) There are no thermally accessible electronically excited states
  (3) Hindered rotations indicated by low frequency modes are not
      treated as such but are treated as vibrations and this may
      cause some error
  (4) All equations used are the standard statistical mechanics
      equations for an ideal gas
  (5) All vibrations are strictly harmonic

freq.      21.54  E(vib)   ...       0.56
freq.      35.36  E(vib)   ...       0.54
freq.      43.54  E(vib)   ...       0.53
freq.      63.56  E(vib)   ...       0.51
freq.      79.68  E(vib)   ...       0.49
freq.      84.53  E(vib)   ...       0.48
freq.      87.53  E(vib)   ...       0.48
freq.     114.87  E(vib)   ...       0.44
freq.     120.17  E(vib)   ...       0.44
freq.     132.91  E(vib)   ...       0.42
freq.     162.39  E(vib)   ...       0.39
freq.     170.62  E(vib)   ...       0.38
freq.     217.89  E(vib)   ...       0.33
freq.     238.85  E(vib)   ...       0.32
freq.     271.99  E(vib)   ...       0.29
freq.     291.25  E(vib)   ...       0.27
freq.     332.67  E(vib)   ...       0.24
freq.     354.26  E(vib)   ...       0.22
freq.     368.09  E(vib)   ...       0.21
freq.     389.06  E(vib)   ...       0.20
freq.     418.43  E(vib)   ...       0.18
freq.     435.46  E(vib)   ...       0.17
freq.     462.94  E(vib)   ...       0.16
freq.     495.61  E(vib)   ...       0.14
freq.     516.38  E(vib)   ...       0.13
freq.     562.86  E(vib)   ...       0.11
freq.     585.47  E(vib)   ...       0.11
freq.     600.69  E(vib)   ...       0.10
freq.     634.21  E(vib)   ...       0.09
freq.     642.29  E(vib)   ...       0.09
freq.     701.52  E(vib)   ...       0.07
freq.     718.65  E(vib)   ...       0.07
freq.     760.12  E(vib)   ...       0.06
freq.     770.50  E(vib)   ...       0.05
freq.     781.36  E(vib)   ...       0.05
freq.     813.97  E(vib)   ...       0.05
freq.     860.31  E(vib)   ...       0.04
freq.     869.36  E(vib)   ...       0.04
freq.     932.03  E(vib)   ...       0.03
freq.     962.54  E(vib)   ...       0.03
freq.     980.27  E(vib)   ...       0.02
freq.    1002.64  E(vib)   ...       0.02
freq.    1003.57  E(vib)   ...       0.02
freq.    1010.18  E(vib)   ...       0.02
freq.    1015.33  E(vib)   ...       0.02
freq.    1028.54  E(vib)   ...       0.02
freq.    1034.11  E(vib)   ...       0.02
freq.    1055.73  E(vib)   ...       0.02
freq.    1061.30  E(vib)   ...       0.02
freq.    1086.87  E(vib)   ...       0.02
freq.    1091.15  E(vib)   ...       0.02
freq.    1121.12  E(vib)   ...       0.01
freq.    1135.30  E(vib)   ...       0.01
freq.    1170.30  E(vib)   ...       0.01
freq.    1182.32  E(vib)   ...       0.01
freq.    1184.85  E(vib)   ...       0.01
freq.    1205.02  E(vib)   ...       0.01
freq.    1218.64  E(vib)   ...       0.01
freq.    1235.82  E(vib)   ...       0.01
freq.    1250.96  E(vib)   ...       0.01
freq.    1285.56  E(vib)   ...       0.01
freq.    1290.32  E(vib)   ...       0.01
freq.    1332.92  E(vib)   ...       0.01
freq.    1336.28  E(vib)   ...       0.01
freq.    1361.27  E(vib)   ...       0.01
freq.    1370.72  E(vib)   ...       0.01
freq.    1373.67  E(vib)   ...       0.01
freq.    1406.62  E(vib)   ...       0.00
freq.    1413.54  E(vib)   ...       0.00
freq.    1442.27  E(vib)   ...       0.00
freq.    1457.95  E(vib)   ...       0.00
freq.    1474.84  E(vib)   ...       0.00
freq.    1482.66  E(vib)   ...       0.00
freq.    1489.67  E(vib)   ...       0.00
freq.    1497.76  E(vib)   ...       0.00
freq.    1501.47  E(vib)   ...       0.00
freq.    1504.73  E(vib)   ...       0.00
freq.    1510.30  E(vib)   ...       0.00
freq.    1512.14  E(vib)   ...       0.00
freq.    1518.34  E(vib)   ...       0.00
freq.    1529.98  E(vib)   ...       0.00
freq.    1532.85  E(vib)   ...       0.00
freq.    1543.12  E(vib)   ...       0.00
freq.    1555.27  E(vib)   ...       0.00
freq.    1639.94  E(vib)   ...       0.00
freq.    1661.02  E(vib)   ...       0.00
freq.    1701.43  E(vib)   ...       0.00
freq.    1706.89  E(vib)   ...       0.00
freq.    3036.27  E(vib)   ...       0.00
freq.    3040.74  E(vib)   ...       0.00
freq.    3065.36  E(vib)   ...       0.00
freq.    3072.95  E(vib)   ...       0.00
freq.    3084.82  E(vib)   ...       0.00
freq.    3087.95  E(vib)   ...       0.00
freq.    3098.46  E(vib)   ...       0.00
freq.    3106.57  E(vib)   ...       0.00
freq.    3117.82  E(vib)   ...       0.00
freq.    3133.80  E(vib)   ...       0.00
freq.    3140.32  E(vib)   ...       0.00
freq.    3168.23  E(vib)   ...       0.00
freq.    3171.67  E(vib)   ...       0.00
freq.    3178.95  E(vib)   ...       0.00
freq.    3181.10  E(vib)   ...       0.00
freq.    3190.79  E(vib)   ...       0.00
freq.    3194.39  E(vib)   ...       0.00
freq.    3196.37  E(vib)   ...       0.00
freq.    3198.38  E(vib)   ...       0.00
freq.    3209.67  E(vib)   ...       0.00

------------
INNER ENERGY
------------

The inner energy is: U= E(el) + E(ZPE) + E(vib) + E(rot) + E(trans)
    E(el)   - is the total energy from the electronic structure calculation
              = E(kin-el) + E(nuc-el) + E(el-el) + E(nuc-nuc)
    E(ZPE)  - the the zero temperature vibrational energy from the frequency calculation
    E(vib)  - the the finite temperature correction to E(ZPE) due to population
              of excited vibrational states
    E(rot)  - is the rotational thermal energy
    E(trans)- is the translational thermal energy

Summary of contributions to the inner energy U:
Electronic energy                ...   -805.09083657 Eh
Zero point energy                ...      0.32643325 Eh     204.84 kcal/mol
Thermal vibrational correction   ...      0.01584661 Eh       9.94 kcal/mol
Thermal rotational correction    ...      0.00141627 Eh       0.89 kcal/mol
Thermal translational correction ...      0.00141627 Eh       0.89 kcal/mol
-----------------------------------------------------------------------
Total thermal energy                   -804.74572417 Eh

Summary of corrections to the electronic energy:
(perhaps to be used in another calculation)
Total thermal correction                  0.01867915 Eh      11.72 kcal/mol
Non-thermal (ZPE) correction              0.32643325 Eh     204.84 kcal/mol
-----------------------------------------------------------------------
Total correction                          0.34511240 Eh     216.56 kcal/mol

--------
ENTHALPY
--------

Rotational constants in cm-1:     0.019622     0.008909     0.006997

                             ****ORCA TERMINATED NORMALLY****
TOTAL RUN TIME: 0 days 0 hours 35 minutes 18 seconds 824 msec
