                         Program Version 5.0.4 -  RELEASE  -
|  1> ! OPT FREQ B3LYP 6-31G(d) D4 AUTOAUX
|  2>
|  3> %PAL NPROCS 4 END
|  4>
|  5> %maxcore 3375
|  6>
|  7> *xyzfile 0 1 /users/fjb15167/WWenergy/structures/Ns.xyz
|  8>
|  9>                          ****END OF INPUT****
 Total Charge           Charge          ....    0
 Multiplicity           Mult            ....    1
 Number of Electrons    NEL             ....   94
Dispersion correction           -0.040911592
FINAL SINGLE POINT ENERGY      -610.039121065801
Dispersion correction            ... Starting D4
Dispersion correction           -0.040630281
FINAL SINGLE POINT ENERGY      -610.039835133436
Dispersion correction            ... Starting D4
Dispersion correction           -0.040700924
FINAL SINGLE POINT ENERGY      -610.040013894092
Dispersion correction            ... Starting D4
FINAL SINGLE POINT ENERGY      -610.040061623674
FINAL SINGLE POINT ENERGY      -610.040081683695
FINAL SINGLE POINT ENERGY      -610.040108966659
FINAL SINGLE POINT ENERGY      -610.040123365399
FINAL SINGLE POINT ENERGY      -610.040145068689
FINAL SINGLE POINT ENERGY      -610.040161581091
FINAL SINGLE POINT ENERGY      -610.040173334962
FINAL SINGLE POINT ENERGY      -610.040179011328
FINAL SINGLE POINT ENERGY      -610.040182793702
FINAL SINGLE POINT ENERGY      -610.040185455725
FINAL SINGLE POINT ENERGY      -610.040186776510
FINAL SINGLE POINT ENERGY      -610.040186708008
FINAL SINGLE POINT ENERGY      -610.040185761390
Dispersion correction           -0.040364144
FINAL SINGLE POINT ENERGY      -610.040184581777
Dispersion correction            ... Starting D4
Dispersion correction           -0.040340314
FINAL SINGLE POINT ENERGY      -610.040183731143
Dispersion correction            ... Starting D4
                    ***********************HURRAY********************

CARTESIAN COORDINATES (ANGSTROEM)
---------------------------------
  C      1.027392    1.465360   -0.118605
  H      3.133218    1.007808    0.128858
  H      2.277000    1.326316    1.647882
  H      2.635953    2.677023    0.549512
  O      0.386787    2.439143   -0.507568
  C      2.358190    1.623267    0.594925
  N      0.565992    0.175782   -0.295120
  C     -0.633687   -0.041453   -1.107714
  H     -0.937039    0.923125   -1.511701
  H     -0.400197   -0.711486   -1.942167
  C      1.349438   -0.999024    0.061199
  H      1.793491   -0.861101    1.047536
  H      0.655454   -1.844453    0.100177
  O      2.437313   -1.250397   -0.810183
  H      2.080825   -1.549761   -1.661801
  C     -1.722720   -0.761393   -0.302473
  O     -1.779146   -1.992007   -0.359630
  N     -2.560005   -0.019032    0.478994
  C     -3.584170   -0.706374    1.253252
  H     -4.578258   -0.322121    0.989677
  H     -3.529869   -1.771704    1.033237
  H     -3.425337   -0.542707    2.327620
  C     -2.530258    1.428565    0.635562
  H     -2.464962    1.678669    1.703011
  H     -1.676117    1.881720    0.134003
  H     -3.455288    1.874236    0.243517

 Multiplicity           Mult            ....    1
 Number of Electrons    NEL             ....   94
 Basis Dimension        Dim             ....  196

ORBITAL ENERGIES
----------------

  NO   OCC          E(Eh)            E(eV)
   0   2.0000     -19.151481      -521.1383
   1   2.0000     -19.113616      -520.1079
   2   2.0000     -19.105025      -519.8742
   3   2.0000     -14.362818      -390.8322
   4   2.0000     -14.361632      -390.7999
   5   2.0000     -10.287376      -279.9337
   6   2.0000     -10.279642      -279.7233
   7   2.0000     -10.263809      -279.2924
   8   2.0000     -10.219377      -278.0834
   9   2.0000     -10.206140      -277.7232
  10   2.0000     -10.202741      -277.6307
  11   2.0000     -10.178946      -276.9832
  12   2.0000      -1.045172       -28.4406
  13   2.0000      -1.029009       -28.0008
  14   2.0000      -1.027151       -27.9502
  15   2.0000      -0.931539       -25.3485
  16   2.0000      -0.927197       -25.2303
  17   2.0000      -0.764195       -20.7948
  18   2.0000      -0.726769       -19.7764
  19   2.0000      -0.714904       -19.4535
  20   2.0000      -0.694374       -18.8949
  21   2.0000      -0.673022       -18.3139
  22   2.0000      -0.575150       -15.6506
  23   2.0000      -0.544137       -14.8067
  24   2.0000      -0.521932       -14.2025
  25   2.0000      -0.502082       -13.6623
  26   2.0000      -0.490857       -13.3569
  27   2.0000      -0.483922       -13.1682
  28   2.0000      -0.468730       -12.7548
  29   2.0000      -0.463942       -12.6245
  30   2.0000      -0.445198       -12.1145
  31   2.0000      -0.433001       -11.7826
  32   2.0000      -0.411170       -11.1885
  33   2.0000      -0.409883       -11.1535
  34   2.0000      -0.401433       -10.9235
  35   2.0000      -0.398834       -10.8528
  36   2.0000      -0.397586       -10.8189
  37   2.0000      -0.391005       -10.6398
  38   2.0000      -0.377130       -10.2622
  39   2.0000      -0.364671        -9.9232
  40   2.0000      -0.354957        -9.6589
  41   2.0000      -0.347715        -9.4618
  42   2.0000      -0.299332        -8.1452
  43   2.0000      -0.263130        -7.1601
  44   2.0000      -0.252854        -6.8805
  45   2.0000      -0.240233        -6.5371
  46   2.0000      -0.236313        -6.4304
  47   0.0000       0.012810         0.3486
  48   0.0000       0.024188         0.6582
  49   0.0000       0.061803         1.6817
  50   0.0000       0.093542         2.5454
  51   0.0000       0.103440         2.8148

MULLIKEN ATOMIC CHARGES
-----------------------
   0 C :    0.536680
   1 H :    0.198470
   2 H :    0.170733
   3 H :    0.185103
   4 O :   -0.469850
   5 C :   -0.559114
   6 N :   -0.391519
   7 C :   -0.252530
   8 H :    0.199781
   9 H :    0.160771
  10 C :    0.053749
  11 H :    0.161914
  12 H :    0.183897
  13 O :   -0.616842
  14 H :    0.403543
  15 C :    0.530481
  16 O :   -0.487291
  17 N :   -0.367305
  18 C :   -0.322650
  19 H :    0.153167
  20 H :    0.203277
  21 H :    0.151594
  22 C :   -0.352818
  23 H :    0.154220
  24 H :    0.218422
  25 H :    0.154119
Sum of atomic charges:   -0.0000000

LOEWDIN ATOMIC CHARGES
----------------------
   0 C :    0.120448
   1 H :    0.156000
   2 H :    0.144887
   3 H :    0.152073
   4 O :   -0.278759
   5 C :   -0.393757
   6 N :   -0.095963
   7 C :   -0.179780
   8 H :    0.156485
   9 H :    0.133530
  10 C :   -0.062296
  11 H :    0.130829
  12 H :    0.137143
  13 O :   -0.404710
  14 H :    0.315338
  15 C :    0.094731
  16 O :   -0.295759
  17 N :   -0.077173
  18 C :   -0.277755
  19 H :    0.124967
  20 H :    0.156406
  21 H :    0.123690
  22 C :   -0.288023
  23 H :    0.126182
  24 H :    0.157306
  25 H :    0.123959

  Mayer bond orders larger than 0.100000
B(  0-C ,  4-O ) :   1.8037 B(  0-C ,  5-C ) :   0.9857 B(  0-C ,  6-N ) :   1.1006
B(  1-H ,  5-C ) :   0.9144 B(  2-H ,  5-C ) :   0.9297 B(  3-H ,  5-C ) :   0.9402
B(  6-N ,  7-C ) :   0.9465 B(  6-N , 10-C ) :   0.9485 B(  7-C ,  8-H ) :   0.8968
B(  7-C ,  9-H ) :   0.9262 B(  7-C , 15-C ) :   0.9240 B( 10-C , 11-H ) :   0.9279
B( 10-C , 12-H ) :   0.9060 B( 10-C , 13-O ) :   0.9836 B( 13-O , 14-H ) :   0.7827
B( 15-C , 16-O ) :   1.7720 B( 15-C , 17-N ) :   1.1746 B( 16-O , 17-N ) :   0.1042
B( 17-N , 18-C ) :   0.9554 B( 17-N , 22-C ) :   0.9544 B( 18-C , 19-H ) :   0.9407
B( 18-C , 20-H ) :   0.9185 B( 18-C , 21-H ) :   0.9398 B( 22-C , 23-H ) :   0.9378
B( 22-C , 24-H ) :   0.8886 B( 22-C , 25-H ) :   0.9359

Dispersion correction           -0.040337370
FINAL SINGLE POINT ENERGY      -610.040184267198

DIPOLE MOMENT
-------------
                                X             Y             Z
Electronic contribution:      2.33832      -2.11074      -4.59905
Nuclear contribution   :     -2.55012       2.21416       5.01678
                        -----------------------------------------
Total Dipole Moment    :     -0.21180       0.10343       0.41773
                        -----------------------------------------
Magnitude (a.u.)       :      0.47964
Magnitude (Debye)      :      1.21914

Dispersion correction in the Hessian             ... Starting D4

VIBRATIONAL FREQUENCIES
-----------------------

Scaling factor for frequencies =  1.000000000  (already applied!)

   0:         0.00 cm**-1
   1:         0.00 cm**-1
   2:         0.00 cm**-1
   3:         0.00 cm**-1
   4:         0.00 cm**-1
   5:         0.00 cm**-1
   6:        12.31 cm**-1
   7:        57.52 cm**-1
   8:        77.82 cm**-1
   9:        97.00 cm**-1
  10:       106.24 cm**-1
  11:       122.30 cm**-1
  12:       144.77 cm**-1
  13:       169.04 cm**-1
  14:       194.07 cm**-1
  15:       209.11 cm**-1
  16:       267.88 cm**-1
  17:       277.74 cm**-1
  18:       315.52 cm**-1
  19:       354.76 cm**-1
  20:       390.00 cm**-1
  21:       432.75 cm**-1
  22:       442.99 cm**-1
  23:       473.21 cm**-1
  24:       512.67 cm**-1
  25:       577.52 cm**-1
  26:       608.87 cm**-1
  27:       636.64 cm**-1
  28:       708.56 cm**-1
  29:       768.52 cm**-1
  30:       822.07 cm**-1
  31:       950.26 cm**-1
  32:       996.74 cm**-1
  33:      1004.56 cm**-1
  34:      1011.45 cm**-1
  35:      1056.22 cm**-1
  36:      1072.60 cm**-1
  37:      1096.00 cm**-1
  38:      1109.55 cm**-1
  39:      1142.14 cm**-1
  40:      1164.30 cm**-1
  41:      1190.61 cm**-1
  42:      1226.59 cm**-1
  43:      1263.97 cm**-1
  44:      1288.44 cm**-1
  45:      1312.49 cm**-1
  46:      1375.73 cm**-1
  47:      1398.36 cm**-1
  48:      1418.35 cm**-1
  49:      1438.15 cm**-1
  50:      1449.73 cm**-1
  51:      1465.25 cm**-1
  52:      1482.64 cm**-1
  53:      1504.12 cm**-1
  54:      1504.68 cm**-1
  55:      1517.91 cm**-1
  56:      1519.09 cm**-1
  57:      1525.22 cm**-1
  58:      1536.35 cm**-1
  59:      1545.06 cm**-1
  60:      1550.48 cm**-1
  61:      1572.10 cm**-1
  62:      1742.92 cm**-1
  63:      1757.80 cm**-1
  64:      3024.11 cm**-1
  65:      3034.34 cm**-1
  66:      3059.48 cm**-1
  67:      3070.32 cm**-1
  68:      3072.78 cm**-1
  69:      3080.72 cm**-1
  70:      3091.83 cm**-1
  71:      3130.67 cm**-1
  72:      3158.58 cm**-1
  73:      3170.74 cm**-1
  74:      3179.02 cm**-1
  75:      3187.84 cm**-1
  76:      3191.30 cm**-1
  77:      3733.00 cm**-1

IR SPECTRUM
-----------

 Mode   freq       eps      Int      T**2         TX        TY        TZ
       cm**-1   L/(mol*cm) km/mol    a.u.
----------------------------------------------------------------------------
  6:     12.31   0.001018    5.15  0.025819  (-0.061031  0.008678 -0.148388)
  7:     57.52   0.000258    1.31  0.001401  ( 0.020357  0.012016 -0.029024)
  8:     77.82   0.000237    1.20  0.000951  ( 0.021964  0.007600 -0.020274)
  9:     97.00   0.000756    3.82  0.002431  ( 0.008691  0.005803  0.048189)
 10:    106.24   0.000809    4.09  0.002375  (-0.045988 -0.010337 -0.012396)
 11:    122.30   0.002028   10.25  0.005176  ( 0.067401  0.004639 -0.024731)
 12:    144.77   0.000254    1.28  0.000547  (-0.023316  0.000127 -0.001954)
 13:    169.04   0.000087    0.44  0.000160  (-0.003276  0.010606  0.006060)
 14:    194.07   0.000104    0.53  0.000168  (-0.000642 -0.010760 -0.007170)
 15:    209.11   0.000544    2.75  0.000811  (-0.007490 -0.003281 -0.027283)
 16:    267.88   0.001311    6.63  0.001527  (-0.033281 -0.020383 -0.002091)
 17:    277.74   0.001467    7.41  0.001648  (-0.019580  0.021115 -0.028620)
 18:    315.52   0.016021   80.96  0.015845  ( 0.018707 -0.123356  0.016689)
 19:    354.76   0.003114   15.74  0.002739  (-0.011941 -0.047987  0.017137)
 20:    390.00   0.005308   26.82  0.004247  ( 0.030121 -0.051738 -0.025750)
 21:    432.75   0.000107    0.54  0.000077  ( 0.004930  0.003397  0.006401)
 22:    442.99   0.001218    6.15  0.000858  (-0.026781  0.010554  0.005396)
 23:    473.21   0.002417   12.22  0.001594  ( 0.009867  0.038562 -0.003097)
 24:    512.67   0.003438   17.37  0.002093  ( 0.026788 -0.015705  0.033593)
 25:    577.52   0.001341    6.78  0.000725  (-0.020651 -0.015712  0.007167)
 26:    608.87   0.003906   19.74  0.002002  (-0.029106  0.000359  0.033983)
 27:    636.64   0.005720   28.91  0.002804  ( 0.005951 -0.051430  0.011107)
 28:    708.56   0.000420    2.12  0.000185  ( 0.001612 -0.009946  0.009140)
 29:    768.52   0.001872    9.46  0.000760  (-0.004963 -0.021923  0.015969)
 30:    822.07   0.003688   18.64  0.001400  (-0.035532  0.007491  0.009022)
 31:    950.26   0.001405    7.10  0.000461  ( 0.014665  0.011539 -0.010636)
 32:    996.74   0.013741   69.44  0.004302  ( 0.057902 -0.018723 -0.024472)
 33:   1004.56   0.005956   30.10  0.001850  (-0.016616 -0.037971  0.011499)
 34:   1011.45   0.001272    6.43  0.000392  ( 0.007341  0.014934  0.010749)
 35:   1056.22   0.029822  150.71  0.008811  (-0.068206  0.040220  0.050412)
 36:   1072.60   0.004422   22.35  0.001287  ( 0.020599 -0.010842 -0.027291)
 37:   1096.00   0.002034   10.28  0.000579  (-0.002649  0.023910 -0.000530)
 38:   1109.55   0.009777   49.41  0.002750  ( 0.035303 -0.033285 -0.019890)
 39:   1142.14   0.000023    0.12  0.000006  (-0.000797 -0.000945 -0.002186)
 40:   1164.30   0.009826   49.66  0.002634  (-0.037543  0.032934  0.011812)
 41:   1190.61   0.000586    2.96  0.000154  (-0.010207  0.000730 -0.007001)
 42:   1226.59   0.003165   16.00  0.000805  ( 0.001700 -0.000746 -0.028316)
 43:   1263.97   0.020642  104.32  0.005096  ( 0.022512  0.063351  0.024005)
 44:   1288.44   0.009027   45.62  0.002186  ( 0.030924  0.024296 -0.025296)
 45:   1312.49   0.012072   61.01  0.002870  (-0.053211 -0.005708 -0.002524)
 46:   1375.73   0.000223    1.13  0.000051  (-0.002821  0.002993 -0.005801)
 47:   1398.36   0.006621   33.46  0.001477  (-0.025745 -0.026487  0.010634)
 48:   1418.35   0.008865   44.80  0.001950  ( 0.043940 -0.001661  0.004118)
 49:   1438.15   0.014703   74.30  0.003190  (-0.005362 -0.051803 -0.021867)
 50:   1449.73   0.007284   36.81  0.001568  ( 0.017127 -0.032323 -0.015157)
 51:   1465.25   0.019685   99.48  0.004193  ( 0.056777 -0.014502 -0.027544)
 52:   1482.64   0.015873   80.21  0.003341  ( 0.039605  0.041663 -0.006047)
 53:   1504.12   0.003210   16.22  0.000666  ( 0.007823 -0.005102 -0.024059)
 54:   1504.68   0.002844   14.37  0.000590  (-0.019575  0.012606 -0.006914)
 55:   1517.91   0.003380   17.08  0.000695  ( 0.013232  0.011990  0.019393)
 56:   1519.09   0.003584   18.11  0.000736  ( 0.014745  0.021445 -0.007673)
 57:   1525.22   0.000773    3.91  0.000158  (-0.007615 -0.003225 -0.009473)
 58:   1536.35   0.003368   17.02  0.000684  ( 0.016054 -0.008931  0.018617)
 59:   1545.06   0.002145   10.84  0.000433  (-0.006219 -0.019838 -0.000981)
 60:   1550.48   0.001001    5.06  0.000201  ( 0.005661  0.013003  0.000537)
 61:   1572.10   0.007351   37.15  0.001459  (-0.028213  0.001910  0.025681)
 62:   1742.92   0.062294  314.81  0.011154  ( 0.030816 -0.095062 -0.034165)
 63:   1757.80   0.052526  265.45  0.009325  (-0.036763  0.087892 -0.015768)
 64:   3024.11   0.007198   36.37  0.000743  ( 0.011748 -0.024556 -0.001311)
 65:   3034.34   0.017694   89.42  0.001820  (-0.033325  0.010893  0.024300)
 66:   3059.48   0.000639    3.23  0.000065  (-0.002969  0.000618 -0.007484)
 67:   3070.32   0.008500   42.96  0.000864  (-0.015210  0.001106 -0.025127)
 68:   3072.78   0.004555   23.02  0.000463  (-0.001770 -0.008292 -0.019767)
 69:   3080.72   0.005448   27.53  0.000552  ( 0.016664 -0.002618  0.016348)
 70:   3091.83   0.003009   15.21  0.000304  (-0.000321  0.012731 -0.011898)
 71:   3130.67   0.000943    4.77  0.000094  ( 0.005194  0.004164 -0.007048)
 72:   3158.58   0.003228   16.31  0.000319  ( 0.009627  0.003242  0.014687)
 73:   3170.74   0.000053    0.27  0.000005  (-0.002001  0.000987 -0.000519)
 74:   3179.02   0.000976    4.93  0.000096  ( 0.001620  0.009531 -0.001537)
 75:   3187.84   0.003067   15.50  0.000300  ( 0.016973  0.003163 -0.001474)
 76:   3191.30   0.000109    0.55  0.000011  (-0.000359  0.002994 -0.001244)
 77:   3733.00   0.003655   18.47  0.000306  ( 0.000689 -0.008236 -0.015403)

--------------------------
THERMOCHEMISTRY AT 298.15K
--------------------------

Temperature         ... 298.15 K
Pressure            ... 1.00 atm
Total Mass          ... 174.20 AMU

Throughout the following assumptions are being made:
  (1) The electronic state is orbitally nondegenerate
  (2) There are no thermally accessible electronically excited states
  (3) Hindered rotations indicated by low frequency modes are not
      treated as such but are treated as vibrations and this may
      cause some error
  (4) All equations used are the standard statistical mechanics
      equations for an ideal gas
  (5) All vibrations are strictly harmonic

freq.      12.31  E(vib)   ...       0.58
freq.      57.52  E(vib)   ...       0.51
freq.      77.82  E(vib)   ...       0.49
freq.      97.00  E(vib)   ...       0.46
freq.     106.24  E(vib)   ...       0.45
freq.     122.30  E(vib)   ...       0.43
freq.     144.77  E(vib)   ...       0.41
freq.     169.04  E(vib)   ...       0.38
freq.     194.07  E(vib)   ...       0.36
freq.     209.11  E(vib)   ...       0.34
freq.     267.88  E(vib)   ...       0.29
freq.     277.74  E(vib)   ...       0.28
freq.     315.52  E(vib)   ...       0.25
freq.     354.76  E(vib)   ...       0.22
freq.     390.00  E(vib)   ...       0.20
freq.     432.75  E(vib)   ...       0.17
freq.     442.99  E(vib)   ...       0.17
freq.     473.21  E(vib)   ...       0.15
freq.     512.67  E(vib)   ...       0.13
freq.     577.52  E(vib)   ...       0.11
freq.     608.87  E(vib)   ...       0.10
freq.     636.64  E(vib)   ...       0.09
freq.     708.56  E(vib)   ...       0.07
freq.     768.52  E(vib)   ...       0.06
freq.     822.07  E(vib)   ...       0.05
freq.     950.26  E(vib)   ...       0.03
freq.     996.74  E(vib)   ...       0.02
freq.    1004.56  E(vib)   ...       0.02
freq.    1011.45  E(vib)   ...       0.02
freq.    1056.22  E(vib)   ...       0.02
freq.    1072.60  E(vib)   ...       0.02
freq.    1096.00  E(vib)   ...       0.02
freq.    1109.55  E(vib)   ...       0.02
freq.    1142.14  E(vib)   ...       0.01
freq.    1164.30  E(vib)   ...       0.01
freq.    1190.61  E(vib)   ...       0.01
freq.    1226.59  E(vib)   ...       0.01
freq.    1263.97  E(vib)   ...       0.01
freq.    1288.44  E(vib)   ...       0.01
freq.    1312.49  E(vib)   ...       0.01
freq.    1375.73  E(vib)   ...       0.01
freq.    1398.36  E(vib)   ...       0.00
freq.    1418.35  E(vib)   ...       0.00
freq.    1438.15  E(vib)   ...       0.00
freq.    1449.73  E(vib)   ...       0.00
freq.    1465.25  E(vib)   ...       0.00
freq.    1482.64  E(vib)   ...       0.00
freq.    1504.12  E(vib)   ...       0.00
freq.    1504.68  E(vib)   ...       0.00
freq.    1517.91  E(vib)   ...       0.00
freq.    1519.09  E(vib)   ...       0.00
freq.    1525.22  E(vib)   ...       0.00
freq.    1536.35  E(vib)   ...       0.00
freq.    1545.06  E(vib)   ...       0.00
freq.    1550.48  E(vib)   ...       0.00
freq.    1572.10  E(vib)   ...       0.00
freq.    1742.92  E(vib)   ...       0.00
freq.    1757.80  E(vib)   ...       0.00
freq.    3024.11  E(vib)   ...       0.00
freq.    3034.34  E(vib)   ...       0.00
freq.    3059.48  E(vib)   ...       0.00
freq.    3070.32  E(vib)   ...       0.00
freq.    3072.78  E(vib)   ...       0.00
freq.    3080.72  E(vib)   ...       0.00
freq.    3091.83  E(vib)   ...       0.00
freq.    3130.67  E(vib)   ...       0.00
freq.    3158.58  E(vib)   ...       0.00
freq.    3170.74  E(vib)   ...       0.00
freq.    3179.02  E(vib)   ...       0.00
freq.    3187.84  E(vib)   ...       0.00
freq.    3191.30  E(vib)   ...       0.00
freq.    3733.00  E(vib)   ...       0.00

------------
INNER ENERGY
------------

The inner energy is: U= E(el) + E(ZPE) + E(vib) + E(rot) + E(trans)
    E(el)   - is the total energy from the electronic structure calculation
              = E(kin-el) + E(nuc-el) + E(el-el) + E(nuc-nuc)
    E(ZPE)  - the the zero temperature vibrational energy from the frequency calculation
    E(vib)  - the the finite temperature correction to E(ZPE) due to population
              of excited vibrational states
    E(rot)  - is the rotational thermal energy
    E(trans)- is the translational thermal energy

Summary of contributions to the inner energy U:
Electronic energy                ...   -610.04018427 Eh
Zero point energy                ...      0.22133417 Eh     138.89 kcal/mol
Thermal vibrational correction   ...      0.01124042 Eh       7.05 kcal/mol
Thermal rotational correction    ...      0.00141627 Eh       0.89 kcal/mol
Thermal translational correction ...      0.00141627 Eh       0.89 kcal/mol
-----------------------------------------------------------------------
Total thermal energy                   -609.80477713 Eh

Summary of corrections to the electronic energy:
(perhaps to be used in another calculation)
Total thermal correction                  0.01407296 Eh       8.83 kcal/mol
Non-thermal (ZPE) correction              0.22133417 Eh     138.89 kcal/mol
-----------------------------------------------------------------------
Total correction                          0.23540714 Eh     147.72 kcal/mol

--------
ENTHALPY
--------

The enthalpy is H = U + kB*T
                kB is Boltzmann's constant
Total free energy                 ...   -609.80477713 Eh
Thermal Enthalpy correction       ...      0.00094421 Eh       0.59 kcal/mol
-----------------------------------------------------------------------
Total Enthalpy                    ...   -609.80383292 Eh

Note: Only C1 symmetry has been detected, increase convergence thresholds
      if your molecule has a higher symmetry. Symmetry factor of 1.0 is
      used for the rotational entropy correction.

Note: Rotational entropy computed according to Herzberg
Infrared and Raman Spectra, Chapter V,1, Van Nostrand Reinhold, 1945
Point Group:  C1, Symmetry Number:   1
Rotational constants in cm-1:     0.044828     0.021353     0.016270

Vibrational entropy computed according to the QRRHO of S. Grimme
Chem.Eur.J. 2012 18 9955

-------
ENTROPY
-------

The entropy contributions are T*S = T*(S(el)+S(vib)+S(rot)+S(trans))
     S(el)   - electronic entropy
     S(vib)  - vibrational entropy
     S(rot)  - rotational entropy
     S(trans)- translational entropy
The entropies will be listed as multiplied by the temperature to get
units of energy

Electronic entropy                ...      0.00000000 Eh      0.00 kcal/mol
Vibrational entropy               ...      0.02053989 Eh     12.89 kcal/mol

                             ****ORCA TERMINATED NORMALLY****
TOTAL RUN TIME: 0 days 0 hours 24 minutes 56 seconds 986 msec
