                         Program Version 5.0.4 -  RELEASE  -
|  1> ! OPT FREQ B3LYP 6-31G(d) D4 AUTOAUX
|  2>
|  3> %PAL NPROCS 4 END
|  4>
|  5> %maxcore 3375
|  6>
|  7> *xyzfile 0 1 /users/fjb15167/WWenergy/structures/Nf.xyz
|  8>
|  9>                          ****END OF INPUT****
 Total Charge           Charge          ....    0
 Multiplicity           Mult            ....    1
 Number of Electrons    NEL             ....  126
Dispersion correction           -0.069136420
FINAL SINGLE POINT ENERGY      -765.777659177242
Dispersion correction            ... Starting D4
Dispersion correction           -0.068662990
FINAL SINGLE POINT ENERGY      -765.778067300483
Dispersion correction            ... Starting D4
Dispersion correction           -0.069150032
FINAL SINGLE POINT ENERGY      -765.778094149172
Dispersion correction            ... Starting D4
FINAL SINGLE POINT ENERGY      -765.778172006796
FINAL SINGLE POINT ENERGY      -765.778187965230
FINAL SINGLE POINT ENERGY      -765.778203910568
FINAL SINGLE POINT ENERGY      -765.778212512281
FINAL SINGLE POINT ENERGY      -765.778215720028
Dispersion correction           -0.069037050
FINAL SINGLE POINT ENERGY      -765.778213091780
Dispersion correction            ... Starting D4
Dispersion correction           -0.069045726
FINAL SINGLE POINT ENERGY      -765.778213522758
Dispersion correction            ... Starting D4
                    ***********************HURRAY********************

CARTESIAN COORDINATES (ANGSTROEM)
---------------------------------
  C      2.554158    1.689069   -0.754453
  H      3.168762    1.535364    0.135732
  H      2.888876    2.578301   -1.291638
  H      2.699194    0.822322   -1.409272
  C      1.077451    1.881972   -0.455440
  N      0.512544    1.157297    0.572589
  C     -0.836815    1.552786    1.014063
  H     -0.998551    2.567518    0.647016
  H     -0.838887    1.575840    2.110556
  C     -1.920721    0.629824    0.506740
  C     -2.285226    0.665156   -0.847332
  C     -2.532871   -0.299306    1.353380
  C     -3.235399   -0.225525   -1.341563
  H     -1.803304    1.388335   -1.499223
  C     -3.485649   -1.194388    0.858121
  H     -2.266445   -0.321239    2.408472
  C     -3.834890   -1.161037   -0.491341
  H     -3.513360   -0.190851   -2.391877
  H     -3.953125   -1.912839    1.526473
  H     -4.575427   -1.854930   -0.880270
  C      1.206730    0.184610    1.413603
  H      1.793582    0.674475    2.199600
  H      0.432459   -0.412677    1.910176
  C      2.191405   -0.786151    0.739083
  N      1.751617   -1.551484   -0.304014
  O      3.338449   -0.851104    1.174762
  O      0.401278    2.666100   -1.118647
  C      0.389083   -1.576861   -0.814258
  H      0.264692   -0.925679   -1.689653
  H      0.145394   -2.603138   -1.111517
  H     -0.327904   -1.269153   -0.057440
  C      2.714843   -2.382186   -1.013703
  H      2.441742   -3.442338   -0.932448
  H      2.737034   -2.112194   -2.078086
  H      3.698280   -2.226886   -0.572191

 Multiplicity           Mult            ....    1
 Number of Electrons    NEL             ....  126
 Basis Dimension        Dim             ....  274

ORBITAL ENERGIES
----------------

  NO   OCC          E(Eh)            E(eV)
   0   2.0000     -19.106215      -519.9065
   1   2.0000     -19.102784      -519.8132
   2   2.0000     -14.362978      -390.8365
   3   2.0000     -14.359958      -390.7543
   4   2.0000     -10.283455      -279.8270
   5   2.0000     -10.279466      -279.7185
   6   2.0000     -10.227627      -278.3079
   7   2.0000     -10.214861      -277.9605
   8   2.0000     -10.210332      -277.8372
   9   2.0000     -10.205522      -277.7064
  10   2.0000     -10.192344      -277.3478
  11   2.0000     -10.188252      -277.2364
  12   2.0000     -10.187821      -277.2247
  13   2.0000     -10.186874      -277.1989
  14   2.0000     -10.185948      -277.1737
  15   2.0000     -10.180225      -277.0180
  16   2.0000     -10.172507      -276.8080
  17   2.0000      -1.033128       -28.1128
  18   2.0000      -1.025750       -27.9121
  19   2.0000      -0.937185       -25.5021
  20   2.0000      -0.928414       -25.2634
  21   2.0000      -0.855994       -23.2928
  22   2.0000      -0.777258       -21.1503
  23   2.0000      -0.746941       -20.3253
  24   2.0000      -0.744395       -20.2560
  25   2.0000      -0.733028       -19.9467
  26   2.0000      -0.719225       -19.5711
  27   2.0000      -0.687133       -18.6978
  28   2.0000      -0.673574       -18.3289
  29   2.0000      -0.607671       -16.5356
  30   2.0000      -0.592089       -16.1116
  31   2.0000      -0.564258       -15.3542
  32   2.0000      -0.542536       -14.7631
  33   2.0000      -0.517517       -14.0823
  34   2.0000      -0.497359       -13.5338
  35   2.0000      -0.492827       -13.4105
  36   2.0000      -0.483790       -13.1646
  37   2.0000      -0.468638       -12.7523
  38   2.0000      -0.463025       -12.5996
  39   2.0000      -0.456112       -12.4114
  40   2.0000      -0.449785       -12.2393
  41   2.0000      -0.444396       -12.0926
  42   2.0000      -0.421845       -11.4790
  43   2.0000      -0.418082       -11.3766
  44   2.0000      -0.414921       -11.2906
  45   2.0000      -0.406949       -11.0736
  46   2.0000      -0.403294       -10.9742
  47   2.0000      -0.401346       -10.9212
  48   2.0000      -0.399035       -10.8583
  49   2.0000      -0.389647       -10.6028
  50   2.0000      -0.384264       -10.4563
  51   2.0000      -0.381371       -10.3776
  52   2.0000      -0.358145        -9.7456
  53   2.0000      -0.355912        -9.6849
  54   2.0000      -0.354528        -9.6472
  55   2.0000      -0.340797        -9.2736
  56   2.0000      -0.339735        -9.2447
  57   2.0000      -0.257690        -7.0121
  58   2.0000      -0.254286        -6.9195
  59   2.0000      -0.249191        -6.7808
  60   2.0000      -0.241303        -6.5662
  61   2.0000      -0.239614        -6.5202
  62   2.0000      -0.235706        -6.4139
  63   0.0000      -0.009180        -0.2498
  64   0.0000      -0.004627        -0.1259
  65   0.0000       0.017250         0.4694
  66   0.0000       0.026441         0.7195
  67   0.0000       0.077448         2.1075

MULLIKEN ATOMIC CHARGES
-----------------------
   0 C :   -0.559150
   1 H :    0.188834
   2 H :    0.184309
   3 H :    0.179979
   4 C :    0.526687
   5 N :   -0.374710
   6 C :   -0.249254
   7 H :    0.196293
   8 H :    0.147011
   9 C :    0.153233
  10 C :   -0.176419
  11 C :   -0.192676
  12 C :   -0.131822
  13 H :    0.169153
  14 C :   -0.126106
  15 H :    0.123286
  16 C :   -0.127820
  17 H :    0.133230
  18 H :    0.130923
  19 H :    0.130634
  20 C :   -0.249040
  21 H :    0.182994
  22 H :    0.173592
  23 C :    0.519183
  24 N :   -0.367284
  25 O :   -0.478622
  26 O :   -0.477794
  27 C :   -0.326334
  28 H :    0.165585
  29 H :    0.156277
  30 H :    0.189068
  31 C :   -0.325685
  32 H :    0.155489
  33 H :    0.152547
  34 H :    0.204409
Sum of atomic charges:   -0.0000000

LOEWDIN ATOMIC CHARGES
----------------------
   0 C :   -0.394887
   1 H :    0.149761
   2 H :    0.152868
   3 H :    0.150966
   4 C :    0.111821
   5 N :   -0.089143
   6 C :   -0.148934
   7 H :    0.156774
   8 H :    0.124684
   9 C :   -0.034225
  10 C :   -0.125538
  11 C :   -0.145216
  12 C :   -0.127855
  13 H :    0.149311
  14 C :   -0.130417
  15 H :    0.127214
  16 C :   -0.130472
  17 H :    0.132990
  18 H :    0.132147
  19 H :    0.131983
  20 C :   -0.179316
  21 H :    0.143047
  22 H :    0.145310
  23 C :    0.092943
  24 N :   -0.083201
  25 O :   -0.280795
  26 O :   -0.285796
  27 C :   -0.278479
  28 H :    0.128304
  29 H :    0.129521
  30 H :    0.146938
  31 C :   -0.278619
  32 H :    0.125728
  33 H :    0.123506
  34 H :    0.157077

  Mayer bond orders larger than 0.100000
B(  0-C ,  1-H ) :   0.9162 B(  0-C ,  2-H ) :   0.9365 B(  0-C ,  3-H ) :   0.9260
B(  0-C ,  4-C ) :   0.9871 B(  4-C ,  5-N ) :   1.1177 B(  4-C , 26-O ) :   1.8017
B(  5-N ,  6-C ) :   0.9342 B(  5-N , 20-C ) :   0.9292 B(  6-C ,  7-H ) :   0.9029
B(  6-C ,  8-H ) :   0.9280 B(  6-C ,  9-C ) :   0.9673 B(  9-C , 10-C ) :   1.4314
B(  9-C , 11-C ) :   1.4324 B( 10-C , 12-C ) :   1.4437 B( 10-C , 13-H ) :   0.9032
B( 11-C , 14-C ) :   1.4248 B( 11-C , 15-H ) :   0.9235 B( 12-C , 16-C ) :   1.4339
B( 12-C , 17-H ) :   0.9298 B( 14-C , 16-C ) :   1.4665 B( 14-C , 18-H ) :   0.9293
B( 16-C , 19-H ) :   0.9305 B( 20-C , 21-H ) :   0.9149 B( 20-C , 22-H ) :   0.9129
B( 20-C , 23-C ) :   0.9386 B( 23-C , 24-N ) :   1.1554 B( 23-C , 25-O ) :   1.8004
B( 24-N , 25-O ) :   0.1002 B( 24-N , 27-C ) :   0.9511 B( 24-N , 31-C ) :   0.9531
B( 27-C , 28-H ) :   0.9308 B( 27-C , 29-H ) :   0.9385 B( 27-C , 30-H ) :   0.9176
B( 31-C , 32-H ) :   0.9404 B( 31-C , 33-H ) :   0.9401 B( 31-C , 34-H ) :   0.9183

Dispersion correction           -0.069052755
FINAL SINGLE POINT ENERGY      -765.778214546002

DIPOLE MOMENT
-------------
                                X             Y             Z
Electronic contribution:     -2.90360       5.00553       3.07329
Nuclear contribution   :      2.11876      -6.09187      -3.05411
                        -----------------------------------------
Total Dipole Moment    :     -0.78484      -1.08634       0.01919
                        -----------------------------------------
Magnitude (a.u.)       :      1.34033
Magnitude (Debye)      :      3.40685

Dispersion correction in the Hessian             ... Starting D4

VIBRATIONAL FREQUENCIES
-----------------------

Scaling factor for frequencies =  1.000000000  (already applied!)

   0:         0.00 cm**-1
   1:         0.00 cm**-1
   2:         0.00 cm**-1
   3:         0.00 cm**-1
   4:         0.00 cm**-1
   5:         0.00 cm**-1
   6:        37.83 cm**-1
   7:        48.04 cm**-1
   8:        53.27 cm**-1
   9:        71.11 cm**-1
  10:        76.49 cm**-1
  11:        93.30 cm**-1
  12:       105.38 cm**-1
  13:       118.00 cm**-1
  14:       153.81 cm**-1
  15:       182.73 cm**-1
  16:       186.14 cm**-1
  17:       211.64 cm**-1
  18:       234.40 cm**-1
  19:       240.36 cm**-1
  20:       282.71 cm**-1
  21:       314.70 cm**-1
  22:       325.01 cm**-1
  23:       404.92 cm**-1
  24:       409.70 cm**-1
  25:       419.77 cm**-1
  26:       451.17 cm**-1
  27:       465.95 cm**-1
  28:       521.22 cm**-1
  29:       572.24 cm**-1
  30:       587.04 cm**-1
  31:       610.68 cm**-1
  32:       623.74 cm**-1
  33:       636.05 cm**-1
  34:       692.15 cm**-1
  35:       722.67 cm**-1
  36:       755.72 cm**-1
  37:       776.83 cm**-1
  38:       801.63 cm**-1
  39:       834.76 cm**-1
  40:       872.01 cm**-1
  41:       930.77 cm**-1
  42:       953.91 cm**-1
  43:       979.42 cm**-1
  44:       981.01 cm**-1
  45:      1008.33 cm**-1
  46:      1009.23 cm**-1
  47:      1018.53 cm**-1
  48:      1018.99 cm**-1
  49:      1059.06 cm**-1
  50:      1065.17 cm**-1
  51:      1091.59 cm**-1
  52:      1093.36 cm**-1
  53:      1125.38 cm**-1
  54:      1138.33 cm**-1
  55:      1180.38 cm**-1
  56:      1192.72 cm**-1
  57:      1195.14 cm**-1
  58:      1198.24 cm**-1
  59:      1214.17 cm**-1
  60:      1239.80 cm**-1
  61:      1276.07 cm**-1
  62:      1297.94 cm**-1
  63:      1312.59 cm**-1
  64:      1349.69 cm**-1
  65:      1367.63 cm**-1
  66:      1379.07 cm**-1
  67:      1402.88 cm**-1
  68:      1423.97 cm**-1
  69:      1445.86 cm**-1
  70:      1455.73 cm**-1
  71:      1465.32 cm**-1
  72:      1494.74 cm**-1
  73:      1503.34 cm**-1
  74:      1504.11 cm**-1
  75:      1509.54 cm**-1
  76:      1513.82 cm**-1
  77:      1521.33 cm**-1
  78:      1523.71 cm**-1
  79:      1531.61 cm**-1
  80:      1535.78 cm**-1
  81:      1546.24 cm**-1
  82:      1562.24 cm**-1
  83:      1645.76 cm**-1
  84:      1666.06 cm**-1
  85:      1748.78 cm**-1
  86:      1759.13 cm**-1
  87:      3031.02 cm**-1
  88:      3041.56 cm**-1
  89:      3048.47 cm**-1
  90:      3058.56 cm**-1
  91:      3070.15 cm**-1
  92:      3080.29 cm**-1
  93:      3091.93 cm**-1
  94:      3095.79 cm**-1
  95:      3139.48 cm**-1
  96:      3146.16 cm**-1
  97:      3171.01 cm**-1
  98:      3172.78 cm**-1
  99:      3184.52 cm**-1
 100:      3191.55 cm**-1
 101:      3195.05 cm**-1
 102:      3206.90 cm**-1
 103:      3209.96 cm**-1
 104:      3214.15 cm**-1

IR SPECTRUM
-----------

 Mode   freq       eps      Int      T**2         TX        TY        TZ
       cm**-1   L/(mol*cm) km/mol    a.u.
----------------------------------------------------------------------------
  6:     37.83   0.000273    1.38  0.002251  (-0.009679  0.029419 -0.035939)
  7:     48.04   0.000143    0.72  0.000928  ( 0.025259  0.014988 -0.008097)
  8:     53.27   0.000108    0.54  0.000630  ( 0.012451  0.019841 -0.009032)
  9:     71.11   0.000677    3.42  0.002969  ( 0.008641  0.049903  0.020101)
 10:     76.49   0.000331    1.67  0.001351  (-0.020039  0.019849  0.023564)
 11:     93.30   0.000482    2.44  0.001612  (-0.003575 -0.034120 -0.020854)
 12:    105.38   0.000264    1.34  0.000783  (-0.010032 -0.023831  0.010681)
 13:    118.00   0.000253    1.28  0.000670  ( 0.018811 -0.000112  0.017783)
 14:    153.81   0.000481    2.43  0.000976  ( 0.009955  0.029300  0.004296)
 15:    182.73   0.000489    2.47  0.000835  (-0.024520 -0.003711  0.014837)
 16:    186.14   0.000493    2.49  0.000826  ( 0.022148  0.018305  0.000386)
 17:    211.64   0.000028    0.14  0.000041  ( 0.002495 -0.003311  0.004914)
 18:    234.40   0.000664    3.36  0.000884  ( 0.015359  0.017826 -0.018189)
 19:    240.36   0.000806    4.07  0.001046  ( 0.001130 -0.032024  0.004407)
 20:    282.71   0.000369    1.86  0.000407  (-0.008781 -0.006130  0.017093)
 21:    314.70   0.001084    5.48  0.001075  (-0.012782 -0.023664 -0.018739)
 22:    325.01   0.000224    1.13  0.000215  ( 0.001814 -0.014432  0.001758)
 23:    404.92   0.000748    3.78  0.000576  (-0.010079  0.008607  0.020011)
 24:    409.70   0.000563    2.85  0.000429  (-0.006812 -0.019559 -0.000415)
 25:    419.77   0.000051    0.26  0.000038  (-0.005823 -0.001138 -0.001731)
 26:    451.17   0.000694    3.51  0.000480  ( 0.017940 -0.006452 -0.010794)
 27:    465.95   0.000642    3.25  0.000430  (-0.014601  0.007725  0.012542)
 28:    521.22   0.003138   15.86  0.001879  ( 0.038636 -0.003388 -0.019358)
 29:    572.24   0.002699   13.64  0.001472  (-0.011842  0.022706 -0.028570)
 30:    587.04   0.001201    6.07  0.000638  ( 0.024281 -0.006734 -0.001848)
 31:    610.68   0.000161    0.82  0.000083  ( 0.007412  0.000806 -0.005190)
 32:    623.74   0.005561   28.10  0.002782  ( 0.008263  0.049683  0.015663)
 33:    636.05   0.000020    0.10  0.000010  (-0.002488  0.001196  0.001514)
 34:    692.15   0.000744    3.76  0.000336  (-0.018007  0.002161 -0.002596)
 35:    722.67   0.007790   39.37  0.003364  ( 0.043509 -0.036708 -0.011113)
 36:    755.72   0.001457    7.36  0.000602  ( 0.021353  0.011265  0.004339)
 37:    776.83   0.003615   18.27  0.001452  ( 0.010817 -0.035434 -0.008923)
 38:    801.63   0.001939    9.80  0.000755  ( 0.025199  0.010872 -0.001336)
 39:    834.76   0.001741    8.80  0.000651  (-0.020538 -0.013760 -0.006289)
 40:    872.01   0.000052    0.26  0.000019  ( 0.000682 -0.003180  0.002826)
 41:    930.77   0.000644    3.25  0.000216  ( 0.013983 -0.000001 -0.004517)
 42:    953.91   0.001025    5.18  0.000335  (-0.014090  0.009859 -0.006299)
 43:    979.42   0.000734    3.71  0.000234  ( 0.011570 -0.008915 -0.004520)
 44:    981.01   0.000188    0.95  0.000060  ( 0.002422 -0.003948 -0.006186)
 45:   1008.33   0.005770   29.16  0.001786  ( 0.006171  0.030028  0.029087)
 46:   1009.23   0.000342    1.73  0.000106  (-0.009793 -0.001194 -0.002883)
 47:   1018.53   0.000181    0.91  0.000055  (-0.005320 -0.004505  0.002603)
 48:   1018.99   0.003812   19.26  0.001167  (-0.004565 -0.021164  0.026431)
 49:   1059.06   0.000582    2.94  0.000171  (-0.010625 -0.007644 -0.000350)
 50:   1065.17   0.001219    6.16  0.000357  ( 0.001002 -0.016643 -0.008898)
 51:   1091.59   0.000656    3.31  0.000187  ( 0.013067 -0.003887  0.001267)
 52:   1093.36   0.001170    5.91  0.000334  ( 0.004619  0.009359 -0.015003)
 53:   1125.38   0.001344    6.79  0.000373  ( 0.011177 -0.009490  0.012554)
 54:   1138.33   0.000365    1.84  0.000100  ( 0.008976 -0.000237  0.004397)
 55:   1180.38   0.001571    7.94  0.000415  (-0.012498 -0.014170 -0.007641)
 56:   1192.72   0.000249    1.26  0.000065  (-0.003970  0.005080  0.004863)
 57:   1195.14   0.007830   39.57  0.002045  (-0.002560  0.032859  0.030957)
 58:   1198.24   0.008083   40.85  0.002105  ( 0.044282  0.004926  0.010944)
 59:   1214.17   0.000040    0.20  0.000010  (-0.002914 -0.001150  0.000751)
 60:   1239.80   0.000815    4.12  0.000205  ( 0.012343  0.000682  0.007235)
 61:   1276.07   0.017617   89.03  0.004308  ( 0.050502  0.031408 -0.027772)
 62:   1297.94   0.011102   56.11  0.002669  (-0.035971  0.029908  0.021929)
 63:   1312.59   0.008518   43.05  0.002025  ( 0.022363  0.026381 -0.028792)
 64:   1349.69   0.010852   54.84  0.002509  ( 0.004736  0.027556 -0.041560)
 65:   1367.63   0.000787    3.98  0.000180  (-0.011671  0.001341 -0.006445)
 66:   1379.07   0.000432    2.18  0.000098  (-0.008420  0.005149  0.000641)
 67:   1402.88   0.005008   25.31  0.001114  (-0.020472 -0.024204  0.010443)
 68:   1423.97   0.001671    8.44  0.000366  (-0.015374  0.003622  0.010803)
 69:   1445.86   0.012282   62.07  0.002651  (-0.014443 -0.034721 -0.035167)
 70:   1455.73   0.010903   55.10  0.002337  ( 0.022767 -0.013415 -0.040485)
 71:   1465.32   0.014171   71.61  0.003018  ( 0.015987  0.047332 -0.022848)
 72:   1494.74   0.002086   10.54  0.000435  (-0.016543 -0.010088  0.007746)
 73:   1503.34   0.000266    1.34  0.000055  (-0.003346  0.006499  0.001311)
 74:   1504.11   0.002299   11.62  0.000477  (-0.009736 -0.002500  0.019390)
 75:   1509.54   0.003269   16.52  0.000676  ( 0.017549 -0.019170 -0.000514)
 76:   1513.82   0.003545   17.92  0.000731  ( 0.008689 -0.021838 -0.013359)
 77:   1521.33   0.003587   18.13  0.000736  (-0.025720 -0.007861 -0.003541)
 78:   1523.71   0.000855    4.32  0.000175  ( 0.011953  0.005154 -0.002364)
 79:   1531.61   0.005843   29.53  0.001191  (-0.010431 -0.022398  0.024085)
 80:   1535.78   0.004555   23.02  0.000926  (-0.023404  0.003898  0.019042)
 81:   1546.24   0.002777   14.03  0.000560  (-0.020961 -0.010886 -0.001616)
 82:   1562.24   0.007316   36.97  0.001461  ( 0.005490 -0.024579 -0.028760)
 83:   1645.76   0.000451    2.28  0.000085  ( 0.003628 -0.005955  0.006072)
 84:   1666.06   0.000512    2.59  0.000096  (-0.009397 -0.002767 -0.000066)
 85:   1748.78   0.047157  238.31  0.008415  (-0.033681  0.065971 -0.054114)
 86:   1759.13   0.056468  285.37  0.010017  ( 0.081140  0.022705  0.054019)
 87:   3031.02   0.007766   39.25  0.000800  ( 0.014478 -0.018518 -0.015717)
 88:   3041.56   0.007878   39.81  0.000808  ( 0.013146  0.008641  0.023681)
 89:   3048.47   0.001573    7.95  0.000161  (-0.006451  0.009810 -0.004812)
 90:   3058.56   0.008921   45.08  0.000910  ( 0.000068  0.006610  0.029436)
 91:   3070.15   0.000715    3.61  0.000073  (-0.006705  0.001438  0.005063)
 92:   3080.29   0.007557   38.19  0.000766  (-0.002947 -0.023975  0.013493)
 93:   3091.93   0.002263   11.43  0.000228  (-0.010397 -0.009483 -0.005508)
 94:   3095.79   0.004045   20.44  0.000408  (-0.001186  0.020149 -0.000575)
 95:   3139.48   0.001562    7.89  0.000155  (-0.005471 -0.009835 -0.005349)
 96:   3146.16   0.000663    3.35  0.000066  (-0.007852  0.001982 -0.000430)
 97:   3171.01   0.001961    9.91  0.000193  ( 0.006804  0.003799  0.011500)
 98:   3172.78   0.001021    5.16  0.000100  (-0.000393 -0.007520  0.006609)
 99:   3184.52   0.000221    1.12  0.000022  (-0.002476 -0.003736 -0.001247)
100:   3191.55   0.000234    1.18  0.000023  (-0.004263  0.001830  0.001163)
101:   3195.05   0.004931   24.92  0.000482  ( 0.001775 -0.004221  0.021462)
102:   3206.90   0.003819   19.30  0.000372  ( 0.013777  0.013235 -0.002589)
103:   3209.96   0.000622    3.14  0.000060  (-0.001965 -0.000331 -0.007515)
104:   3214.15   0.001964    9.92  0.000191  (-0.010883 -0.004788 -0.007020)

--------------------------
THERMOCHEMISTRY AT 298.15K
--------------------------

Temperature         ... 298.15 K
Pressure            ... 1.00 atm
Total Mass          ... 234.30 AMU

Throughout the following assumptions are being made:
  (1) The electronic state is orbitally nondegenerate
  (2) There are no thermally accessible electronically excited states
  (3) Hindered rotations indicated by low frequency modes are not
      treated as such but are treated as vibrations and this may
      cause some error
  (4) All equations used are the standard statistical mechanics
      equations for an ideal gas
  (5) All vibrations are strictly harmonic

freq.      37.83  E(vib)   ...       0.54
freq.      48.04  E(vib)   ...       0.53
freq.      53.27  E(vib)   ...       0.52
freq.      71.11  E(vib)   ...       0.50
freq.      76.49  E(vib)   ...       0.49
freq.      93.30  E(vib)   ...       0.47
freq.     105.38  E(vib)   ...       0.45
freq.     118.00  E(vib)   ...       0.44
freq.     153.81  E(vib)   ...       0.40
freq.     182.73  E(vib)   ...       0.37
freq.     186.14  E(vib)   ...       0.37
freq.     211.64  E(vib)   ...       0.34
freq.     234.40  E(vib)   ...       0.32
freq.     240.36  E(vib)   ...       0.31
freq.     282.71  E(vib)   ...       0.28
freq.     314.70  E(vib)   ...       0.25
freq.     325.01  E(vib)   ...       0.24
freq.     404.92  E(vib)   ...       0.19
freq.     409.70  E(vib)   ...       0.19
freq.     419.77  E(vib)   ...       0.18
freq.     451.17  E(vib)   ...       0.16
freq.     465.95  E(vib)   ...       0.16
freq.     521.22  E(vib)   ...       0.13
freq.     572.24  E(vib)   ...       0.11
freq.     587.04  E(vib)   ...       0.10
freq.     610.68  E(vib)   ...       0.10
freq.     623.74  E(vib)   ...       0.09
freq.     636.05  E(vib)   ...       0.09
freq.     692.15  E(vib)   ...       0.07
freq.     722.67  E(vib)   ...       0.07
freq.     755.72  E(vib)   ...       0.06
freq.     776.83  E(vib)   ...       0.05
freq.     801.63  E(vib)   ...       0.05
freq.     834.76  E(vib)   ...       0.04
freq.     872.01  E(vib)   ...       0.04
freq.     930.77  E(vib)   ...       0.03
freq.     953.91  E(vib)   ...       0.03
freq.     979.42  E(vib)   ...       0.03
freq.     981.01  E(vib)   ...       0.02
freq.    1008.33  E(vib)   ...       0.02
freq.    1009.23  E(vib)   ...       0.02
freq.    1018.53  E(vib)   ...       0.02
freq.    1018.99  E(vib)   ...       0.02
freq.    1059.06  E(vib)   ...       0.02
freq.    1065.17  E(vib)   ...       0.02
freq.    1091.59  E(vib)   ...       0.02
freq.    1093.36  E(vib)   ...       0.02
freq.    1125.38  E(vib)   ...       0.01
freq.    1138.33  E(vib)   ...       0.01
freq.    1180.38  E(vib)   ...       0.01
freq.    1192.72  E(vib)   ...       0.01
freq.    1195.14  E(vib)   ...       0.01
freq.    1198.24  E(vib)   ...       0.01
freq.    1214.17  E(vib)   ...       0.01
freq.    1239.80  E(vib)   ...       0.01
freq.    1276.07  E(vib)   ...       0.01
freq.    1297.94  E(vib)   ...       0.01
freq.    1312.59  E(vib)   ...       0.01
freq.    1349.69  E(vib)   ...       0.01
freq.    1367.63  E(vib)   ...       0.01
freq.    1379.07  E(vib)   ...       0.01
freq.    1402.88  E(vib)   ...       0.00
freq.    1423.97  E(vib)   ...       0.00
freq.    1445.86  E(vib)   ...       0.00
freq.    1455.73  E(vib)   ...       0.00
freq.    1465.32  E(vib)   ...       0.00
freq.    1494.74  E(vib)   ...       0.00
freq.    1503.34  E(vib)   ...       0.00
freq.    1504.11  E(vib)   ...       0.00
freq.    1509.54  E(vib)   ...       0.00
freq.    1513.82  E(vib)   ...       0.00
freq.    1521.33  E(vib)   ...       0.00
freq.    1523.71  E(vib)   ...       0.00
freq.    1531.61  E(vib)   ...       0.00
freq.    1535.78  E(vib)   ...       0.00
freq.    1546.24  E(vib)   ...       0.00
freq.    1562.24  E(vib)   ...       0.00
freq.    1645.76  E(vib)   ...       0.00
freq.    1666.06  E(vib)   ...       0.00
freq.    1748.78  E(vib)   ...       0.00
freq.    1759.13  E(vib)   ...       0.00
freq.    3031.02  E(vib)   ...       0.00
freq.    3041.56  E(vib)   ...       0.00
freq.    3048.47  E(vib)   ...       0.00
freq.    3058.56  E(vib)   ...       0.00
freq.    3070.15  E(vib)   ...       0.00
freq.    3080.29  E(vib)   ...       0.00
freq.    3091.93  E(vib)   ...       0.00
freq.    3095.79  E(vib)   ...       0.00
freq.    3139.48  E(vib)   ...       0.00
freq.    3146.16  E(vib)   ...       0.00
freq.    3171.01  E(vib)   ...       0.00
freq.    3172.78  E(vib)   ...       0.00
freq.    3184.52  E(vib)   ...       0.00
freq.    3191.55  E(vib)   ...       0.00
freq.    3195.05  E(vib)   ...       0.00
freq.    3206.90  E(vib)   ...       0.00
freq.    3209.96  E(vib)   ...       0.00
freq.    3214.15  E(vib)   ...       0.00

------------
INNER ENERGY
------------

The inner energy is: U= E(el) + E(ZPE) + E(vib) + E(rot) + E(trans)
    E(el)   - is the total energy from the electronic structure calculation
              = E(kin-el) + E(nuc-el) + E(el-el) + E(nuc-nuc)
    E(ZPE)  - the the zero temperature vibrational energy from the frequency calculation
    E(vib)  - the the finite temperature correction to E(ZPE) due to population
              of excited vibrational states
    E(rot)  - is the rotational thermal energy
    E(trans)- is the translational thermal energy

Summary of contributions to the inner energy U:
Electronic energy                ...   -765.77821455 Eh
Zero point energy                ...      0.29770850 Eh     186.81 kcal/mol
Thermal vibrational correction   ...      0.01458781 Eh       9.15 kcal/mol
Thermal rotational correction    ...      0.00141627 Eh       0.89 kcal/mol
Thermal translational correction ...      0.00141627 Eh       0.89 kcal/mol
-----------------------------------------------------------------------
Total thermal energy                   -765.46308569 Eh

Summary of corrections to the electronic energy:
(perhaps to be used in another calculation)
Total thermal correction                  0.01742035 Eh      10.93 kcal/mol
Non-thermal (ZPE) correction              0.29770850 Eh     186.81 kcal/mol
-----------------------------------------------------------------------
Total correction                          0.31512886 Eh     197.75 kcal/mol

--------
ENTHALPY
--------

The enthalpy is H = U + kB*T
                kB is Boltzmann's constant
Total free energy                 ...   -765.46308569 Eh
Thermal Enthalpy correction       ...      0.00094421 Eh       0.59 kcal/mol
-----------------------------------------------------------------------
Total Enthalpy                    ...   -765.46214148 Eh

Note: Only C1 symmetry has been detected, increase convergence thresholds

Rotational constants in cm-1:     0.023250     0.011441     0.009704

                             ****ORCA TERMINATED NORMALLY****
TOTAL RUN TIME: 0 days 0 hours 26 minutes 18 seconds 747 msec
