                         Program Version 5.0.4 -  RELEASE  -
|  1> ! OPT FREQ B3LYP 6-31G(d) D4 AUTOAUX CPCM(water)
|  2>
|  3> %PAL NPROCS 4 END
|  4>
|  5> %maxcore 3375
|  6>
|  7> *xyzfile 0 1 /users/fjb15167/WWenergy/structures/Nl.xyz
|  8>
|  9>                          ****END OF INPUT****
 Total Charge           Charge          ....    0
 Multiplicity           Mult            ....    1
 Number of Electrons    NEL             ....  110
Dispersion correction           -0.057465491
FINAL SINGLE POINT ENERGY      -652.738137520272
Dispersion correction            ... Starting D4
Dispersion correction           -0.056933267
FINAL SINGLE POINT ENERGY      -652.738729070698
Dispersion correction            ... Starting D4
Dispersion correction           -0.057513766
FINAL SINGLE POINT ENERGY      -652.738644021893
Dispersion correction            ... Starting D4
FINAL SINGLE POINT ENERGY      -652.738938130042
FINAL SINGLE POINT ENERGY      -652.738959101114
FINAL SINGLE POINT ENERGY      -652.738978250161
Dispersion correction           -0.057235398
FINAL SINGLE POINT ENERGY      -652.738982417219
Dispersion correction            ... Starting D4
Dispersion correction           -0.057249776
FINAL SINGLE POINT ENERGY      -652.738986798904
Dispersion correction            ... Starting D4
                    ***********************HURRAY********************

CARTESIAN COORDINATES (ANGSTROEM)
---------------------------------
  C     -1.240593   -3.020627   -0.228141
  H     -0.317007   -3.133553   -0.805459
  H     -2.040117   -3.561805   -0.736978
  H     -1.076955   -3.475611    0.755648
  C     -1.683790   -1.572298   -0.096250
  O     -2.814829   -1.229676   -0.456800
  N     -0.812060   -0.656605    0.436849
  C      0.419416   -1.047852    1.128882
  H      0.256718   -1.041624    2.212948
  H      0.701181   -2.059031    0.840132
  C      1.578244   -0.067960    0.886470
  N      2.282298   -0.183201   -0.266149
  O      1.833617    0.785934    1.747721
  C      2.000545   -1.157102   -1.315302
  H      2.234478   -0.703181   -2.283000
  H      2.610451   -2.062306   -1.198868
  H      0.946465   -1.426810   -1.326518
  C      3.423754    0.692527   -0.506873
  H      3.216915    1.360307   -1.352366
  H      3.610016    1.284145    0.387678
  H      4.309605    0.091551   -0.743377
  C     -1.357101    0.675380    0.764272
  H     -0.668987    1.134271    1.479728
  C     -1.554963    1.621625   -0.432279
  H     -2.256457    1.135801   -1.120143
  C     -2.193619    2.922793    0.073867
  H     -2.398864    3.605937   -0.758670
  H     -3.140046    2.729822    0.594312
  H     -1.523508    3.440201    0.773925
  H     -2.320224    0.532448    1.268022
  C     -0.251834    1.907394   -1.186138
  H      0.493166    2.369292   -0.525303
  H      0.182804    0.992217   -1.598335
  H     -0.434722    2.596598   -2.019504

 Multiplicity           Mult            ....    1
 Number of Electrons    NEL             ....  110
 Basis Dimension        Dim             ....  236

ORBITAL ENERGIES
----------------

  NO   OCC          E(Eh)            E(eV)
   0   2.0000     -19.108721      -519.9747
   1   2.0000     -19.107309      -519.9363
   2   2.0000     -14.361244      -390.7893
   3   2.0000     -14.357922      -390.6989
   4   2.0000     -10.281193      -279.7655
   5   2.0000     -10.281012      -279.7606
   6   2.0000     -10.217420      -278.0301
   7   2.0000     -10.203794      -277.6593
   8   2.0000     -10.197898      -277.4989
   9   2.0000     -10.196673      -277.4656
  10   2.0000     -10.173120      -276.8247
  11   2.0000     -10.171892      -276.7913
  12   2.0000     -10.156209      -276.3645
  13   2.0000     -10.153258      -276.2842
  14   2.0000      -1.031298       -28.0630
  15   2.0000      -1.026010       -27.9191
  16   2.0000      -0.932415       -25.3723
  17   2.0000      -0.925523       -25.1848
  18   2.0000      -0.793603       -21.5950
  19   2.0000      -0.742026       -20.1916
  20   2.0000      -0.735222       -20.0064
  21   2.0000      -0.712640       -19.3919
  22   2.0000      -0.681232       -18.5373
  23   2.0000      -0.672768       -18.3070
  24   2.0000      -0.664905       -18.0930
  25   2.0000      -0.572866       -15.5885
  26   2.0000      -0.543046       -14.7770
  27   2.0000      -0.529415       -14.4061
  28   2.0000      -0.504869       -13.7382
  29   2.0000      -0.495380       -13.4800
  30   2.0000      -0.478279       -13.0146
  31   2.0000      -0.467569       -12.7232
  32   2.0000      -0.455907       -12.4059
  33   2.0000      -0.445784       -12.1304
  34   2.0000      -0.438601       -11.9349
  35   2.0000      -0.423018       -11.5109
  36   2.0000      -0.409059       -11.1311
  37   2.0000      -0.406329       -11.0568
  38   2.0000      -0.398900       -10.8546
  39   2.0000      -0.398181       -10.8351
  40   2.0000      -0.396771       -10.7967
  41   2.0000      -0.391881       -10.6636
  42   2.0000      -0.377933       -10.2841
  43   2.0000      -0.374306       -10.1854
  44   2.0000      -0.373397       -10.1606
  45   2.0000      -0.368231       -10.0201
  46   2.0000      -0.359789        -9.7903
  47   2.0000      -0.350279        -9.5316
  48   2.0000      -0.324655        -8.8343
  49   2.0000      -0.323590        -8.8053
  50   2.0000      -0.314199        -8.5498
  51   2.0000      -0.259748        -7.0681
  52   2.0000      -0.246889        -6.7182
  53   2.0000      -0.239128        -6.5070
  54   2.0000      -0.234129        -6.3710
  55   0.0000       0.015632         0.4254
  56   0.0000       0.025590         0.6963
  57   0.0000       0.087551         2.3824
  58   0.0000       0.107259         2.9187
  59   0.0000       0.114479         3.1151

MULLIKEN ATOMIC CHARGES
-----------------------
   0 C :   -0.572716
   1 H :    0.196133
   2 H :    0.181341
   3 H :    0.196965
   4 C :    0.529780
   5 O :   -0.532770
   6 N :   -0.384719
   7 C :   -0.252534
   8 H :    0.185123
   9 H :    0.204588
  10 C :    0.537064
  11 N :   -0.356798
  12 O :   -0.546027
  13 C :   -0.341959
  14 H :    0.186002
  15 H :    0.180726
  16 H :    0.185654
  17 C :   -0.333939
  18 H :    0.175778
  19 H :    0.185503
  20 H :    0.175782
  21 C :   -0.142952
  22 H :    0.159118
  23 C :   -0.065183
  24 H :    0.138387
  25 C :   -0.460937
  26 H :    0.148886
  27 H :    0.147099
  28 H :    0.145145
  29 H :    0.153664
  30 C :   -0.468880
  31 H :    0.144359
  32 H :    0.157274
  33 H :    0.145044
Sum of atomic charges:   -0.0000000

LOEWDIN ATOMIC CHARGES
----------------------
   0 C :   -0.398166
   1 H :    0.152525
   2 H :    0.150585
   3 H :    0.157018
   4 C :    0.113525
   5 O :   -0.330742
   6 N :   -0.077959
   7 C :   -0.176000
   8 H :    0.145099
   9 H :    0.157316
  10 C :    0.098622
  11 N :   -0.063309
  12 O :   -0.341143
  13 C :   -0.280038
  14 H :    0.145805
  15 H :    0.137193
  16 H :    0.142339
  17 C :   -0.279570
  18 H :    0.135826
  19 H :    0.147770
  20 H :    0.137406
  21 C :   -0.153051
  22 H :    0.134724
  23 C :   -0.132575
  24 H :    0.123968
  25 C :   -0.362332
  26 H :    0.127455
  27 H :    0.125264
  28 H :    0.123751
  29 H :    0.130215
  30 C :   -0.368579
  31 H :    0.123396
  32 H :    0.127847
  33 H :    0.125817

  Mayer bond orders larger than 0.100000
B(  0-C ,  1-H ) :   0.9158 B(  0-C ,  2-H ) :   0.9375 B(  0-C ,  3-H ) :   0.9215
B(  0-C ,  4-C ) :   0.9920 B(  4-C ,  5-O ) :   1.7847 B(  4-C ,  6-N ) :   1.1512
B(  6-N ,  7-C ) :   0.9531 B(  6-N , 21-C ) :   0.9112 B(  7-C ,  8-H ) :   0.9137
B(  7-C ,  9-H ) :   0.9005 B(  7-C , 10-C ) :   0.9351 B( 10-C , 11-N ) :   1.2097
B( 10-C , 12-O ) :   1.7269 B( 11-N , 12-O ) :   0.1053 B( 11-N , 13-C ) :   0.9433
B( 11-N , 17-C ) :   0.9459 B( 13-C , 14-H ) :   0.9335 B( 13-C , 15-H ) :   0.9306
B( 13-C , 16-H ) :   0.9183 B( 17-C , 18-H ) :   0.9337 B( 17-C , 19-H ) :   0.9251
B( 17-C , 20-H ) :   0.9371 B( 21-C , 22-H ) :   0.9138 B( 21-C , 23-C ) :   0.9922
B( 21-C , 29-H ) :   0.9242 B( 23-C , 24-H ) :   0.9243 B( 23-C , 25-C ) :   1.0053
B( 23-C , 30-C ) :   1.0133 B( 25-C , 26-H ) :   0.9487 B( 25-C , 27-H ) :   0.9474
B( 25-C , 28-H ) :   0.9468 B( 30-C , 31-H ) :   0.9435 B( 30-C , 32-H ) :   0.9389
B( 30-C , 33-H ) :   0.9485

Dispersion correction           -0.057251838
FINAL SINGLE POINT ENERGY      -652.738988971458

DIPOLE MOMENT
-------------
                                X             Y             Z
Electronic contribution:     -0.77495      -5.14441       5.40199
Nuclear contribution   :      2.51549       3.89686      -6.30861
                        -----------------------------------------
Total Dipole Moment    :      1.74054      -1.24755      -0.90662
                        -----------------------------------------
Magnitude (a.u.)       :      2.32547
Magnitude (Debye)      :      5.91087

Dispersion correction in the Hessian             ... Starting D4

VIBRATIONAL FREQUENCIES
-----------------------

Scaling factor for frequencies =  1.000000000  (already applied!)

   0:         0.00 cm**-1
   1:         0.00 cm**-1
   2:         0.00 cm**-1
   3:         0.00 cm**-1
   4:         0.00 cm**-1
   5:         0.00 cm**-1
   6:        11.34 cm**-1
   7:        48.98 cm**-1
   8:        63.56 cm**-1
   9:        69.98 cm**-1
  10:        78.06 cm**-1
  11:        94.21 cm**-1
  12:       110.97 cm**-1
  13:       121.50 cm**-1
  14:       154.59 cm**-1
  15:       184.29 cm**-1
  16:       188.21 cm**-1
  17:       229.23 cm**-1
  18:       238.55 cm**-1
  19:       248.79 cm**-1
  20:       272.99 cm**-1
  21:       298.53 cm**-1
  22:       324.60 cm**-1
  23:       345.60 cm**-1
  24:       372.02 cm**-1
  25:       414.09 cm**-1
  26:       416.59 cm**-1
  27:       428.73 cm**-1
  28:       461.14 cm**-1
  29:       515.11 cm**-1
  30:       562.89 cm**-1
  31:       611.96 cm**-1
  32:       631.01 cm**-1
  33:       708.07 cm**-1
  34:       772.25 cm**-1
  35:       821.65 cm**-1
  36:       827.04 cm**-1
  37:       908.20 cm**-1
  38:       937.69 cm**-1
  39:       948.45 cm**-1
  40:       974.96 cm**-1
  41:       981.36 cm**-1
  42:      1001.14 cm**-1
  43:      1005.65 cm**-1
  44:      1062.30 cm**-1
  45:      1083.28 cm**-1
  46:      1088.03 cm**-1
  47:      1132.18 cm**-1
  48:      1146.64 cm**-1
  49:      1155.29 cm**-1
  50:      1176.37 cm**-1
  51:      1200.23 cm**-1
  52:      1203.43 cm**-1
  53:      1241.04 cm**-1
  54:      1271.24 cm**-1
  55:      1293.28 cm**-1
  56:      1329.54 cm**-1
  57:      1348.34 cm**-1
  58:      1383.79 cm**-1
  59:      1394.28 cm**-1
  60:      1404.61 cm**-1
  61:      1419.52 cm**-1
  62:      1421.85 cm**-1
  63:      1435.76 cm**-1
  64:      1440.53 cm**-1
  65:      1454.29 cm**-1
  66:      1468.27 cm**-1
  67:      1486.54 cm**-1
  68:      1488.91 cm**-1
  69:      1499.49 cm**-1
  70:      1502.92 cm**-1
  71:      1506.69 cm**-1
  72:      1507.79 cm**-1
  73:      1509.80 cm**-1
  74:      1513.45 cm**-1
  75:      1514.68 cm**-1
  76:      1518.16 cm**-1
  77:      1525.43 cm**-1
  78:      1531.71 cm**-1
  79:      1552.46 cm**-1
  80:      1709.42 cm**-1
  81:      1716.79 cm**-1
  82:      3031.06 cm**-1
  83:      3042.22 cm**-1
  84:      3045.03 cm**-1
  85:      3050.83 cm**-1
  86:      3059.58 cm**-1
  87:      3062.28 cm**-1
  88:      3066.62 cm**-1
  89:      3067.31 cm**-1
  90:      3093.97 cm**-1
  91:      3100.91 cm**-1
  92:      3101.66 cm**-1
  93:      3106.76 cm**-1
  94:      3118.32 cm**-1
  95:      3125.70 cm**-1
  96:      3125.90 cm**-1
  97:      3134.29 cm**-1
  98:      3165.63 cm**-1
  99:      3176.69 cm**-1
 100:      3195.22 cm**-1
 101:      3200.63 cm**-1

IR SPECTRUM
-----------

 Mode   freq       eps      Int      T**2         TX        TY        TZ
       cm**-1   L/(mol*cm) km/mol    a.u.
----------------------------------------------------------------------------
  6:     11.34   0.000338    1.71  0.009311  ( 0.062010 -0.070756  0.021419)
  7:     48.98   0.000200    1.01  0.001274  (-0.035495  0.002186  0.003085)
  8:     63.56   0.001509    7.63  0.007409  (-0.053479  0.044727 -0.050487)
  9:     69.98   0.001070    5.41  0.004770  ( 0.045018 -0.004376 -0.052196)
 10:     78.06   0.001325    6.70  0.005298  (-0.060163  0.007638  0.040245)
 11:     94.21   0.000697    3.52  0.002310  (-0.022166 -0.016044  0.039508)
 12:    110.97   0.000244    1.23  0.000687  (-0.009539 -0.022392 -0.009703)
 13:    121.50   0.000247    1.25  0.000634  (-0.000975  0.021808 -0.012563)
 14:    154.59   0.000675    3.41  0.001363  ( 0.024103 -0.022212  0.016982)
 15:    184.29   0.000556    2.81  0.000942  (-0.011244  0.026196 -0.011385)
 16:    188.21   0.000115    0.58  0.000190  ( 0.006396 -0.006488 -0.010355)
 17:    229.23   0.000327    1.65  0.000446  ( 0.003463  0.020827 -0.000292)
 18:    238.55   0.001105    5.58  0.001445  ( 0.001793  0.037970 -0.000541)
 19:    248.79   0.001878    9.49  0.002356  ( 0.043711 -0.011658  0.017590)
 20:    272.99   0.000336    1.70  0.000384  ( 0.018599  0.005464  0.002832)
 21:    298.53   0.000916    4.63  0.000957  ( 0.003371 -0.030521  0.003772)
 22:    324.60   0.000620    3.13  0.000596  ( 0.013995  0.010551 -0.016997)
 23:    345.60   0.004792   24.22  0.004327  ( 0.046564  0.040809 -0.022218)
 24:    372.02   0.001481    7.49  0.001243  ( 0.014378 -0.015444 -0.028238)
 25:    414.09   0.000418    2.11  0.000315  ( 0.013334 -0.000903  0.011670)
 26:    416.59   0.000721    3.64  0.000540  ( 0.021060  0.000646 -0.009797)
 27:    428.73   0.001651    8.34  0.001201  ( 0.022433  0.026409  0.000866)
 28:    461.14   0.001110    5.61  0.000751  (-0.019006 -0.015969 -0.011619)
 29:    515.11   0.002737   13.83  0.001658  (-0.011765  0.035434 -0.016244)
 30:    562.89   0.004195   21.20  0.002326  (-0.016196 -0.015212 -0.042801)
 31:    611.96   0.001340    6.77  0.000684  ( 0.011774  0.004021 -0.022994)
 32:    631.01   0.007057   35.66  0.003490  (-0.050568 -0.011262  0.028395)
 33:    708.07   0.003194   16.14  0.001408  ( 0.001907  0.037469 -0.000197)
 34:    772.25   0.000837    4.23  0.000338  ( 0.017961 -0.003851 -0.000857)
 35:    821.65   0.004976   25.15  0.001890  (-0.031387  0.005706  0.029536)
 36:    827.04   0.001591    8.04  0.000600  (-0.022667  0.009282  0.000745)
 37:    908.20   0.000475    2.40  0.000163  ( 0.004597 -0.011146 -0.004239)
 38:    937.69   0.000642    3.24  0.000214  (-0.005382  0.013133  0.003498)
 39:    948.45   0.000492    2.49  0.000162  (-0.009859 -0.000810  0.008000)
 40:    974.96   0.000718    3.63  0.000230  ( 0.001201  0.014903 -0.002486)
 41:    981.36   0.002009   10.15  0.000639  ( 0.007573  0.023480  0.005504)
 42:   1001.14   0.002862   14.46  0.000892  ( 0.028203  0.007594  0.006245)
 43:   1005.65   0.012067   60.98  0.003744  (-0.047300 -0.019726  0.033437)
 44:   1062.30   0.002549   12.88  0.000749  (-0.013248 -0.008701  0.022310)
 45:   1083.28   0.006765   34.19  0.001949  ( 0.019927  0.026665  0.028995)
 46:   1088.03   0.002322   11.74  0.000666  (-0.007060  0.009183 -0.023062)
 47:   1132.18   0.001026    5.19  0.000283  (-0.004540  0.009642  0.013010)
 48:   1146.64   0.008320   42.05  0.002264  (-0.031670  0.034200  0.009584)
 49:   1155.29   0.005231   26.44  0.001413  (-0.026282  0.019163  0.018844)
 50:   1176.37   0.001599    8.08  0.000424  ( 0.012880  0.000805  0.016052)
 51:   1200.23   0.011471   57.97  0.002983  ( 0.015843 -0.009971 -0.051305)
 52:   1203.43   0.002587   13.08  0.000671  ( 0.007975  0.011862 -0.021602)
 53:   1241.04   0.003663   18.51  0.000921  (-0.013971  0.026798 -0.002802)
 54:   1271.24   0.038346  193.78  0.009413  ( 0.060918  0.066830  0.035154)
 55:   1293.28   0.016628   84.03  0.004012  ( 0.047936  0.038523 -0.015176)
 56:   1329.54   0.006068   30.66  0.001424  ( 0.011739  0.035828 -0.001663)
 57:   1348.34   0.000159    0.81  0.000037  ( 0.003820  0.003567  0.003096)
 58:   1383.79   0.007098   35.87  0.001601  ( 0.007198  0.039353  0.000503)
 59:   1394.28   0.003212   16.23  0.000719  ( 0.015527  0.018332  0.011907)
 60:   1404.61   0.008014   40.50  0.001781  ( 0.037946  0.016132  0.008968)
 61:   1419.52   0.007593   38.37  0.001669  ( 0.005270  0.040325  0.003916)
 62:   1421.85   0.003820   19.31  0.000839  (-0.022646 -0.017261  0.005268)
 63:   1435.76   0.012913   65.26  0.002807  ( 0.038550  0.033736 -0.013506)
 64:   1440.53   0.012701   64.18  0.002751  (-0.019356  0.019117  0.044846)
 65:   1454.29   0.012811   64.74  0.002749  (-0.043983 -0.021324  0.018966)
 66:   1468.27   0.028901  146.05  0.006142  (-0.028140 -0.062059 -0.038721)
 67:   1486.54   0.000804    4.07  0.000169  ( 0.011749  0.005534 -0.000442)
 68:   1488.91   0.004246   21.46  0.000890  (-0.023577  0.010986 -0.014607)
 69:   1499.49   0.002043   10.33  0.000425  (-0.005694 -0.008942  0.017687)
 70:   1502.92   0.002862   14.46  0.000594  (-0.015267 -0.017914  0.006345)
 71:   1506.69   0.002246   11.35  0.000465  (-0.012044  0.015227  0.009397)
 72:   1507.79   0.000647    3.27  0.000134  (-0.008645  0.007053 -0.003059)
 73:   1509.80   0.002637   13.33  0.000545  ( 0.009133  0.006130  0.020595)
 74:   1513.45   0.001636    8.27  0.000337  (-0.000217  0.008659 -0.016196)
 75:   1514.68   0.008357   42.23  0.001722  ( 0.009321 -0.034375 -0.021288)
 76:   1518.16   0.000822    4.15  0.000169  ( 0.005164  0.011521  0.003089)
 77:   1525.43   0.004985   25.19  0.001020  ( 0.011278  0.000148  0.029876)
 78:   1531.71   0.000773    3.91  0.000158  ( 0.012227  0.000441  0.002803)
 79:   1552.46   0.015616   78.92  0.003139  ( 0.039434  0.007921 -0.039002)
 80:   1709.42   0.129756  655.74  0.023688  ( 0.018721  0.073752  0.133783)
 81:   1716.79   0.090490  457.30  0.016448  ( 0.125640 -0.023803  0.009819)
 82:   3031.06   0.007575   38.28  0.000780  (-0.012259  0.021039  0.013671)
 83:   3042.22   0.007877   39.81  0.000808  ( 0.020966  0.015261 -0.011641)
 84:   3045.03   0.009303   47.01  0.000953  (-0.013971 -0.026887  0.005940)
 85:   3050.83   0.015852   80.11  0.001621  (-0.023115  0.015091  0.029316)
 86:   3059.58   0.007904   39.94  0.000806  ( 0.018749 -0.011469 -0.017976)
 87:   3062.28   0.000932    4.71  0.000095  ( 0.005492 -0.007698 -0.002351)
 88:   3066.62   0.001531    7.74  0.000156  (-0.000039 -0.009680 -0.007880)
 89:   3067.31   0.010116   51.12  0.001029  (-0.005580  0.006012 -0.031015)
 90:   3093.97   0.006758   34.15  0.000682  ( 0.024214  0.009748 -0.000521)
 91:   3100.91   0.013197   66.69  0.001328  ( 0.026198 -0.018513  0.017293)
 92:   3101.66   0.007945   40.15  0.000799  (-0.021932 -0.008143 -0.015875)
 93:   3106.76   0.016999   85.90  0.001707  ( 0.003274 -0.016079  0.037923)
 94:   3118.32   0.003893   19.68  0.000390  ( 0.002947 -0.011145  0.016023)
 95:   3125.70   0.002047   10.35  0.000204  (-0.004578 -0.000861  0.013517)
 96:   3125.90   0.006309   31.88  0.000630  (-0.023221 -0.006003 -0.007389)
 97:   3134.29   0.010491   53.02  0.001045  ( 0.003865 -0.029799 -0.011902)
 98:   3165.63   0.003540   17.89  0.000349  ( 0.012676  0.010872  0.008374)
 99:   3176.69   0.002261   11.43  0.000222  (-0.012782  0.006386  0.004240)
100:   3195.22   0.000712    3.60  0.000070  ( 0.004605  0.005097  0.004731)
101:   3200.63   0.002093   10.58  0.000204  ( 0.012168  0.006000  0.004479)

--------------------------
THERMOCHEMISTRY AT 298.15K
--------------------------

Temperature         ... 298.15 K
Pressure            ... 1.00 atm
Total Mass          ... 200.28 AMU

Throughout the following assumptions are being made:
  (1) The electronic state is orbitally nondegenerate
  (2) There are no thermally accessible electronically excited states
  (3) Hindered rotations indicated by low frequency modes are not
      treated as such but are treated as vibrations and this may
      cause some error
  (4) All equations used are the standard statistical mechanics
      equations for an ideal gas
  (5) All vibrations are strictly harmonic

freq.      11.34  E(vib)   ...       0.58
freq.      48.98  E(vib)   ...       0.53
freq.      63.56  E(vib)   ...       0.51
freq.      69.98  E(vib)   ...       0.50
freq.      78.06  E(vib)   ...       0.49
freq.      94.21  E(vib)   ...       0.47
freq.     110.97  E(vib)   ...       0.45
freq.     121.50  E(vib)   ...       0.44
freq.     154.59  E(vib)   ...       0.40
freq.     184.29  E(vib)   ...       0.37
freq.     188.21  E(vib)   ...       0.36
freq.     229.23  E(vib)   ...       0.32
freq.     238.55  E(vib)   ...       0.32
freq.     248.79  E(vib)   ...       0.31
freq.     272.99  E(vib)   ...       0.29
freq.     298.53  E(vib)   ...       0.26
freq.     324.60  E(vib)   ...       0.24
freq.     345.60  E(vib)   ...       0.23
freq.     372.02  E(vib)   ...       0.21
freq.     414.09  E(vib)   ...       0.19
freq.     416.59  E(vib)   ...       0.18
freq.     428.73  E(vib)   ...       0.18
freq.     461.14  E(vib)   ...       0.16
freq.     515.11  E(vib)   ...       0.13
freq.     562.89  E(vib)   ...       0.11
freq.     611.96  E(vib)   ...       0.10
freq.     631.01  E(vib)   ...       0.09
freq.     708.07  E(vib)   ...       0.07
freq.     772.25  E(vib)   ...       0.05
freq.     821.65  E(vib)   ...       0.05
freq.     827.04  E(vib)   ...       0.04
freq.     908.20  E(vib)   ...       0.03
freq.     937.69  E(vib)   ...       0.03
freq.     948.45  E(vib)   ...       0.03
freq.     974.96  E(vib)   ...       0.03
freq.     981.36  E(vib)   ...       0.02
freq.    1001.14  E(vib)   ...       0.02
freq.    1005.65  E(vib)   ...       0.02
freq.    1062.30  E(vib)   ...       0.02
freq.    1083.28  E(vib)   ...       0.02
freq.    1088.03  E(vib)   ...       0.02
freq.    1132.18  E(vib)   ...       0.01
freq.    1146.64  E(vib)   ...       0.01
freq.    1155.29  E(vib)   ...       0.01
freq.    1176.37  E(vib)   ...       0.01
freq.    1200.23  E(vib)   ...       0.01
freq.    1203.43  E(vib)   ...       0.01
freq.    1241.04  E(vib)   ...       0.01
freq.    1271.24  E(vib)   ...       0.01
freq.    1293.28  E(vib)   ...       0.01
freq.    1329.54  E(vib)   ...       0.01
freq.    1348.34  E(vib)   ...       0.01
freq.    1383.79  E(vib)   ...       0.00
freq.    1394.28  E(vib)   ...       0.00
freq.    1404.61  E(vib)   ...       0.00
freq.    1419.52  E(vib)   ...       0.00
freq.    1421.85  E(vib)   ...       0.00
freq.    1435.76  E(vib)   ...       0.00
freq.    1440.53  E(vib)   ...       0.00
freq.    1454.29  E(vib)   ...       0.00
freq.    1468.27  E(vib)   ...       0.00
freq.    1486.54  E(vib)   ...       0.00
freq.    1488.91  E(vib)   ...       0.00
freq.    1499.49  E(vib)   ...       0.00
freq.    1502.92  E(vib)   ...       0.00
freq.    1506.69  E(vib)   ...       0.00
freq.    1507.79  E(vib)   ...       0.00
freq.    1509.80  E(vib)   ...       0.00
freq.    1513.45  E(vib)   ...       0.00
freq.    1514.68  E(vib)   ...       0.00
freq.    1518.16  E(vib)   ...       0.00
freq.    1525.43  E(vib)   ...       0.00
freq.    1531.71  E(vib)   ...       0.00
freq.    1552.46  E(vib)   ...       0.00
freq.    1709.42  E(vib)   ...       0.00
freq.    1716.79  E(vib)   ...       0.00
freq.    3031.06  E(vib)   ...       0.00
freq.    3042.22  E(vib)   ...       0.00
freq.    3045.03  E(vib)   ...       0.00
freq.    3050.83  E(vib)   ...       0.00
freq.    3059.58  E(vib)   ...       0.00
freq.    3062.28  E(vib)   ...       0.00
freq.    3066.62  E(vib)   ...       0.00
freq.    3067.31  E(vib)   ...       0.00
freq.    3093.97  E(vib)   ...       0.00
freq.    3100.91  E(vib)   ...       0.00
freq.    3101.66  E(vib)   ...       0.00
freq.    3106.76  E(vib)   ...       0.00
freq.    3118.32  E(vib)   ...       0.00
freq.    3125.70  E(vib)   ...       0.00
freq.    3125.90  E(vib)   ...       0.00
freq.    3134.29  E(vib)   ...       0.00
freq.    3165.63  E(vib)   ...       0.00
freq.    3176.69  E(vib)   ...       0.00
freq.    3195.22  E(vib)   ...       0.00
freq.    3200.63  E(vib)   ...       0.00

------------
INNER ENERGY
------------

The inner energy is: U= E(el) + E(ZPE) + E(vib) + E(rot) + E(trans)
    E(el)   - is the total energy from the electronic structure calculation
              = E(kin-el) + E(nuc-el) + E(el-el) + E(nuc-nuc)
    E(ZPE)  - the the zero temperature vibrational energy from the frequency calculation
    E(vib)  - the the finite temperature correction to E(ZPE) due to population
              of excited vibrational states
    E(rot)  - is the rotational thermal energy
    E(trans)- is the translational thermal energy

Summary of contributions to the inner energy U:
Electronic energy                ...   -652.73898897 Eh
Zero point energy                ...      0.30092982 Eh     188.84 kcal/mol
Thermal vibrational correction   ...      0.01440110 Eh       9.04 kcal/mol
Thermal rotational correction    ...      0.00141627 Eh       0.89 kcal/mol
Thermal translational correction ...      0.00141627 Eh       0.89 kcal/mol
-----------------------------------------------------------------------
Total thermal energy                   -652.42082551 Eh

Summary of corrections to the electronic energy:
(perhaps to be used in another calculation)
Total thermal correction                  0.01723365 Eh      10.81 kcal/mol
Non-thermal (ZPE) correction              0.30092982 Eh     188.84 kcal/mol
-----------------------------------------------------------------------
Total correction                          0.31816346 Eh     199.65 kcal/mol

--------
ENTHALPY
--------

The enthalpy is H = U + kB*T
                kB is Boltzmann's constant
Total free energy                 ...   -652.42082551 Eh
Thermal Enthalpy correction       ...      0.00094421 Eh       0.59 kcal/mol
-----------------------------------------------------------------------
Total Enthalpy                    ...   -652.41988130 Eh

Note: Only C1 symmetry has been detected, increase convergence thresholds
      if your molecule has a higher symmetry. Symmetry factor of 1.0 is
      used for the rotational entropy correction.

Rotational constants in cm-1:     0.025538     0.018726     0.013652

                             ****ORCA TERMINATED NORMALLY****
TOTAL RUN TIME: 0 days 0 hours 23 minutes 38 seconds 949 msec
