                         Program Version 5.0.4 -  RELEASE  -
|  1> ! OPT FREQ B3LYP 6-31G(d) D4 AUTOAUX
|  2> ! CPCM
|  3>
|  4> %cpcm
|  5> epsilon 9.8629
|  6> refrac  1.4295
|  7> end
|  8>
|  9> %PAL NPROCS 4 END
| 10>
| 11> %maxcore 3375
| 12>
| 13> *xyzfile 0 1 /users/fjb15167/WWenergy/structures/Nq.xyz
| 14>
| 15>                          ****END OF INPUT****
 Total Charge           Charge          ....    0
 Multiplicity           Mult            ....    1
 Number of Electrons    NEL             ....  116
Dispersion correction           -0.054463020
FINAL SINGLE POINT ENERGY      -742.791157158647
Dispersion correction            ... Starting D4
Dispersion correction           -0.053809618
FINAL SINGLE POINT ENERGY      -742.792295227570
Dispersion correction            ... Starting D4
Dispersion correction           -0.054241682
FINAL SINGLE POINT ENERGY      -742.792651647640
Dispersion correction            ... Starting D4
FINAL SINGLE POINT ENERGY      -742.792799965758
FINAL SINGLE POINT ENERGY      -742.792874008058
FINAL SINGLE POINT ENERGY      -742.792949827688
FINAL SINGLE POINT ENERGY      -742.792998231971
FINAL SINGLE POINT ENERGY      -742.793030856599
FINAL SINGLE POINT ENERGY      -742.793044987924
Dispersion correction           -0.054534157
FINAL SINGLE POINT ENERGY      -742.793054610702
Dispersion correction            ... Starting D4
Dispersion correction           -0.054512769
FINAL SINGLE POINT ENERGY      -742.793056428843
Dispersion correction            ... Starting D4
                    ***********************HURRAY********************

CARTESIAN COORDINATES (ANGSTROEM)
---------------------------------
  C     -1.113238    2.783541   -0.015389
  H     -1.668336    2.044153    0.570547
  H     -1.673110    2.961041   -0.941454
  H     -1.054688    3.719204    0.542655
  C      0.305237    2.335986   -0.321431
  O      1.267650    3.078366   -0.090943
  N      0.471976    1.087061   -0.857425
  C      1.812172    0.635953   -1.222413
  H      1.847174    0.428854   -2.296429
  H      2.506613    1.445878   -0.996966
  C     -0.641793    0.191597   -1.171250
  H     -1.540203    0.776941   -1.361687
  H     -0.396171   -0.332714   -2.101069
  C     -0.949855   -0.829218   -0.062609
  H     -0.203232   -1.627049   -0.038839
  H     -0.922459   -0.323562    0.911496
  C      2.210599   -0.679497   -0.538703
  N      2.431535   -0.670438    0.802978
  O      2.301416   -1.707029   -1.223821
  C      2.260648    0.484155    1.676408
  H      1.310423    0.420334    2.224497
  H      3.077087    0.496865    2.406929
  H      2.279914    1.419972    1.121062
  C      2.688039   -1.931141    1.488974
  H      1.821227   -2.219012    2.099464
  H      2.881811   -2.705095    0.748306
  H      3.555813   -1.821710    2.148966
  C     -2.354947   -1.398815   -0.233651
  O     -3.305042   -0.691549   -0.579483
  N     -2.487675   -2.717353    0.042067
  H     -3.402021   -3.147204   -0.019157
  H     -1.702561   -3.293514    0.310371

 Multiplicity           Mult            ....    1
 Number of Electrons    NEL             ....  116
 Basis Dimension        Dim             ....  244

ORBITAL ENERGIES
----------------

  NO   OCC          E(Eh)            E(eV)
   0   2.0000     -19.109663      -520.0004
   1   2.0000     -19.108562      -519.9704
   2   2.0000     -19.106957      -519.9267
   3   2.0000     -14.361852      -390.8059
   4   2.0000     -14.359543      -390.7430
   5   2.0000     -14.343666      -390.3110
   6   2.0000     -10.285527      -279.8834
   7   2.0000     -10.284007      -279.8421
   8   2.0000     -10.279568      -279.7213
   9   2.0000     -10.213493      -277.9233
  10   2.0000     -10.211427      -277.8671
  11   2.0000     -10.199169      -277.5335
  12   2.0000     -10.196866      -277.4708
  13   2.0000     -10.183539      -277.1082
  14   2.0000     -10.173659      -276.8393
  15   2.0000      -1.032987       -28.1090
  16   2.0000      -1.026832       -27.9415
  17   2.0000      -1.025645       -27.9092
  18   2.0000      -0.935537       -25.4572
  19   2.0000      -0.926845       -25.2207
  20   2.0000      -0.898661       -24.4538
  21   2.0000      -0.775079       -21.0910
  22   2.0000      -0.755081       -20.5468
  23   2.0000      -0.718820       -19.5601
  24   2.0000      -0.706758       -19.2319
  25   2.0000      -0.674823       -18.3629
  26   2.0000      -0.661438       -17.9987
  27   2.0000      -0.580359       -15.7924
  28   2.0000      -0.553086       -15.0502
  29   2.0000      -0.539823       -14.6893
  30   2.0000      -0.528402       -14.3785
  31   2.0000      -0.512950       -13.9581
  32   2.0000      -0.488164       -13.2836
  33   2.0000      -0.478242       -13.0136
  34   2.0000      -0.468279       -12.7425
  35   2.0000      -0.464942       -12.6517
  36   2.0000      -0.456004       -12.4085
  37   2.0000      -0.448822       -12.2131
  38   2.0000      -0.429994       -11.7007
  39   2.0000      -0.416279       -11.3275
  40   2.0000      -0.407232       -11.0813
  41   2.0000      -0.403475       -10.9791
  42   2.0000      -0.398070       -10.8320
  43   2.0000      -0.396330       -10.7847
  44   2.0000      -0.394248       -10.7280
  45   2.0000      -0.390351       -10.6220
  46   2.0000      -0.379630       -10.3303
  47   2.0000      -0.373966       -10.1761
  48   2.0000      -0.371986       -10.1222
  49   2.0000      -0.360520        -9.8102
  50   2.0000      -0.348032        -9.4704
  51   2.0000      -0.341727        -9.2989
  52   2.0000      -0.265697        -7.2300
  53   2.0000      -0.260790        -7.0965
  54   2.0000      -0.253658        -6.9024
  55   2.0000      -0.251632        -6.8473
  56   2.0000      -0.237465        -6.4617
  57   2.0000      -0.235074        -6.3967
  58   0.0000       0.015503         0.4219
  59   0.0000       0.025854         0.7035
  60   0.0000       0.030447         0.8285
  61   0.0000       0.081207         2.2097
  62   0.0000       0.104418         2.8414

MULLIKEN ATOMIC CHARGES
-----------------------
   0 C :   -0.563612
   1 H :    0.190895
   2 H :    0.198572
   3 H :    0.182315
   4 C :    0.532174
   5 O :   -0.530303
   6 N :   -0.370444
   7 C :   -0.250848
   8 H :    0.180894
   9 H :    0.206210
  10 C :   -0.173335
  11 H :    0.191204
  12 H :    0.181507
  13 C :   -0.384627
  14 H :    0.181642
  15 H :    0.196986
  16 C :    0.524990
  17 N :   -0.359888
  18 O :   -0.542757
  19 C :   -0.349187
  20 H :    0.170398
  21 H :    0.171576
  22 H :    0.198492
  23 C :   -0.329990
  24 H :    0.168381
  25 H :    0.186614
  26 H :    0.171632
  27 C :    0.550086
  28 O :   -0.533205
  29 N :   -0.740039
  30 H :    0.366772
  31 H :    0.376896
Sum of atomic charges:   -0.0000000

LOEWDIN ATOMIC CHARGES
----------------------
   0 C :   -0.393038
   1 H :    0.151954
   2 H :    0.158679
   3 H :    0.150749
   4 C :    0.115885
   5 O :   -0.332952
   6 N :   -0.068681
   7 C :   -0.178881
   8 H :    0.145464
   9 H :    0.161020
  10 C :   -0.157002
  11 H :    0.148598
  12 H :    0.142880
  13 C :   -0.271239
  14 H :    0.144711
  15 H :    0.156405
  16 C :    0.094406
  17 N :   -0.069497
  18 O :   -0.337759
  19 C :   -0.286162
  20 H :    0.130696
  21 H :    0.136484
  22 H :    0.150166
  23 C :   -0.279910
  24 H :    0.131291
  25 H :    0.148110
  26 H :    0.135919
  27 C :    0.109361
  28 O :   -0.336314
  29 N :   -0.347780
  30 H :    0.271183
  31 H :    0.275253

  Mayer bond orders larger than 0.100000
B(  0-C ,  1-H ) :   0.9210 B(  0-C ,  2-H ) :   0.9200 B(  0-C ,  3-H ) :   0.9379
B(  0-C ,  4-C ) :   0.9927 B(  4-C ,  5-O ) :   1.7469 B(  4-C ,  6-N ) :   1.1598
B(  6-N ,  7-C ) :   0.9516 B(  6-N , 10-C ) :   0.9357 B(  7-C ,  8-H ) :   0.9163
B(  7-C ,  9-H ) :   0.8923 B(  7-C , 16-C ) :   0.9387 B( 10-C , 11-H ) :   0.9064
B( 10-C , 12-H ) :   0.9246 B( 10-C , 13-C ) :   0.9790 B( 13-C , 14-H ) :   0.9136
B( 13-C , 15-H ) :   0.9139 B( 13-C , 27-C ) :   0.9408 B( 16-C , 17-N ) :   1.1959
B( 16-C , 18-O ) :   1.7428 B( 17-N , 18-O ) :   0.1011 B( 17-N , 19-C ) :   0.9505
B( 17-N , 23-C ) :   0.9494 B( 19-C , 20-H ) :   0.9294 B( 19-C , 21-H ) :   0.9344
B( 19-C , 22-H ) :   0.9004 B( 23-C , 24-H ) :   0.9354 B( 23-C , 25-H ) :   0.9247
B( 23-C , 26-H ) :   0.9370 B( 27-C , 28-O ) :   1.8133 B( 27-C , 29-N ) :   1.1871
B( 29-N , 30-H ) :   0.8148 B( 29-N , 31-H ) :   0.8105

Dispersion correction           -0.054531311
FINAL SINGLE POINT ENERGY      -742.793059720474

DIPOLE MOMENT
-------------
                                X             Y             Z
Electronic contribution:     -1.56345      -0.20842      -5.65879
Nuclear contribution   :      1.29008      -1.35366       7.19604
                        -----------------------------------------
Total Dipole Moment    :     -0.27337      -1.56208       1.53724
                        -----------------------------------------
Magnitude (a.u.)       :      2.20861
Magnitude (Debye)      :      5.61383

Dispersion correction in the Hessian             ... Starting D4

VIBRATIONAL FREQUENCIES
-----------------------

Scaling factor for frequencies =  1.000000000  (already applied!)

   0:         0.00 cm**-1
   1:         0.00 cm**-1
   2:         0.00 cm**-1
   3:         0.00 cm**-1
   4:         0.00 cm**-1
   5:         0.00 cm**-1
   6:        28.00 cm**-1
   7:        35.26 cm**-1
   8:        45.80 cm**-1
   9:        65.12 cm**-1
  10:        70.88 cm**-1
  11:        77.76 cm**-1
  12:        98.46 cm**-1
  13:       114.39 cm**-1
  14:       132.67 cm**-1
  15:       162.34 cm**-1
  16:       184.68 cm**-1
  17:       187.02 cm**-1
  18:       201.79 cm**-1
  19:       231.74 cm**-1
  20:       261.30 cm**-1
  21:       278.62 cm**-1
  22:       349.07 cm**-1
  23:       359.92 cm**-1
  24:       390.63 cm**-1
  25:       430.48 cm**-1
  26:       449.39 cm**-1
  27:       463.96 cm**-1
  28:       499.10 cm**-1
  29:       547.11 cm**-1
  30:       575.28 cm**-1
  31:       589.85 cm**-1
  32:       604.84 cm**-1
  33:       641.93 cm**-1
  34:       688.07 cm**-1
  35:       712.97 cm**-1
  36:       761.47 cm**-1
  37:       783.66 cm**-1
  38:       827.29 cm**-1
  39:       911.19 cm**-1
  40:       960.76 cm**-1
  41:      1002.96 cm**-1
  42:      1014.76 cm**-1
  43:      1039.89 cm**-1
  44:      1053.01 cm**-1
  45:      1062.58 cm**-1
  46:      1090.00 cm**-1
  47:      1098.76 cm**-1
  48:      1128.56 cm**-1
  49:      1135.81 cm**-1
  50:      1176.15 cm**-1
  51:      1184.97 cm**-1
  52:      1225.76 cm**-1
  53:      1253.91 cm**-1
  54:      1287.34 cm**-1
  55:      1289.23 cm**-1
  56:      1306.28 cm**-1
  57:      1330.17 cm**-1
  58:      1369.87 cm**-1
  59:      1402.86 cm**-1
  60:      1413.64 cm**-1
  61:      1433.42 cm**-1
  62:      1440.66 cm**-1
  63:      1456.75 cm**-1
  64:      1474.52 cm**-1
  65:      1484.73 cm**-1
  66:      1489.66 cm**-1
  67:      1494.40 cm**-1
  68:      1504.59 cm**-1
  69:      1506.99 cm**-1
  70:      1511.45 cm**-1
  71:      1519.41 cm**-1
  72:      1530.63 cm**-1
  73:      1534.60 cm**-1
  74:      1555.83 cm**-1
  75:      1638.35 cm**-1
  76:      1709.00 cm**-1
  77:      1712.44 cm**-1
  78:      1748.50 cm**-1
  79:      3032.67 cm**-1
  80:      3038.70 cm**-1
  81:      3061.26 cm**-1
  82:      3062.80 cm**-1
  83:      3083.19 cm**-1
  84:      3087.23 cm**-1
  85:      3095.67 cm**-1
  86:      3098.44 cm**-1
  87:      3127.21 cm**-1
  88:      3130.33 cm**-1
  89:      3162.60 cm**-1
  90:      3170.06 cm**-1
  91:      3175.39 cm**-1
  92:      3192.73 cm**-1
  93:      3194.46 cm**-1
  94:      3577.06 cm**-1
  95:      3702.80 cm**-1

IR SPECTRUM
-----------

 Mode   freq       eps      Int      T**2         TX        TY        TZ
       cm**-1   L/(mol*cm) km/mol    a.u.
----------------------------------------------------------------------------
  6:     28.00   0.003295   16.65  0.036718  (-0.031172 -0.109472 -0.154151)
  7:     35.26   0.002211   11.17  0.019563  (-0.048735 -0.014678  0.130279)
  8:     45.80   0.000190    0.96  0.001293  ( 0.033148  0.005870  0.012638)
  9:     65.12   0.001258    6.36  0.006028  (-0.068640  0.005760  0.035827)
 10:     70.88   0.001382    6.98  0.006085  ( 0.073556 -0.008132 -0.024674)
 11:     77.76   0.000031    0.15  0.000123  (-0.006456  0.001673  0.008856)
 12:     98.46   0.000463    2.34  0.001468  (-0.002602  0.023870 -0.029853)
 13:    114.39   0.002877   14.54  0.007850  (-0.001596  0.057347 -0.067516)
 14:    132.67   0.001382    6.98  0.003251  ( 0.049746 -0.017658  0.021552)
 15:    162.34   0.000488    2.47  0.000939  (-0.026706 -0.011318 -0.009867)
 16:    184.68   0.052604  265.84  0.088885  (-0.057566  0.060241  0.286256)
 17:    187.02   0.010892   55.04  0.018174  ( 0.009412 -0.035246 -0.129782)
 18:    201.79   0.000385    1.95  0.000596  (-0.018060 -0.006767 -0.014957)
 19:    231.74   0.000367    1.85  0.000494  (-0.011132  0.019092  0.002327)
 20:    261.30   0.003852   19.47  0.004601  (-0.067077 -0.009959  0.001447)
 21:    278.62   0.000544    2.75  0.000609  ( 0.012149 -0.004713  0.020966)
 22:    349.07   0.002647   13.38  0.002367  ( 0.005467  0.003736 -0.048195)
 23:    359.92   0.000559    2.82  0.000484  ( 0.002964 -0.021509  0.003616)
 24:    390.63   0.002516   12.71  0.002010  (-0.003539  0.022781 -0.038448)
 25:    430.48   0.000105    0.53  0.000076  (-0.000344 -0.008024  0.003406)
 26:    449.39   0.003118   15.75  0.002165  (-0.044668 -0.008550 -0.009827)
 27:    463.96   0.002494   12.60  0.001677  (-0.006208  0.040225 -0.004552)
 28:    499.10   0.003660   18.49  0.002288  (-0.045645  0.005724  0.013114)
 29:    547.11   0.004236   21.41  0.002416  (-0.025236 -0.034719  0.023955)
 30:    575.28   0.005319   26.88  0.002885  (-0.001683  0.053568 -0.003565)
 31:    589.85   0.003535   17.86  0.001870  ( 0.017273  0.025912  0.030005)
 32:    604.84   0.002707   13.68  0.001396  (-0.003242  0.011015 -0.035561)
 33:    641.93   0.001624    8.21  0.000790  (-0.008324 -0.000339  0.026837)
 34:    688.07   0.002218   11.21  0.001006  (-0.000972  0.007779  0.030730)
 35:    712.97   0.000412    2.08  0.000180  ( 0.008360  0.009973  0.003292)
 36:    761.47   0.002012   10.17  0.000825  (-0.009058  0.006613 -0.026436)
 37:    783.66   0.003217   16.26  0.001281  (-0.032022  0.011473 -0.011142)
 38:    827.29   0.002643   13.36  0.000997  ( 0.003840  0.009155  0.029973)
 39:    911.19   0.003080   15.57  0.001055  (-0.001980 -0.021274 -0.024461)
 40:    960.76   0.001879    9.50  0.000610  (-0.007355 -0.018850 -0.014178)
 41:   1002.96   0.006211   31.39  0.001932  (-0.008494  0.010304 -0.041882)
 42:   1014.76   0.007621   38.51  0.002344  (-0.010421 -0.046532  0.008345)
 43:   1039.89   0.007154   36.15  0.002147  ( 0.026105 -0.034646 -0.016282)
 44:   1053.01   0.003198   16.16  0.000948  ( 0.008064  0.022615 -0.019270)
 45:   1062.58   0.001798    9.09  0.000528  ( 0.002722 -0.005479  0.022152)
 46:   1090.00   0.002601   13.15  0.000745  ( 0.001772  0.026035  0.007988)
 47:   1098.76   0.003505   17.71  0.000995  ( 0.008808  0.010692  0.028347)
 48:   1128.56   0.003235   16.35  0.000894  (-0.015253  0.005272 -0.025178)
 49:   1135.81   0.000571    2.89  0.000157  (-0.006998  0.010254  0.001671)
 50:   1176.15   0.012532   63.33  0.003325  (-0.017911 -0.014483 -0.052862)
 51:   1184.97   0.000053    0.27  0.000014  ( 0.002780  0.000681  0.002374)
 52:   1225.76   0.007082   35.79  0.001803  ( 0.017895  0.002706 -0.038411)
 53:   1253.91   0.013589   68.67  0.003382  ( 0.006012 -0.055537 -0.016168)
 54:   1287.34   0.008149   41.18  0.001976  ( 0.016738  0.002143 -0.041119)
 55:   1289.23   0.026093  131.86  0.006316  (-0.038064  0.069762 -0.000464)
 56:   1306.28   0.014315   72.34  0.003420  (-0.016251  0.056156  0.001502)
 57:   1330.17   0.027210  137.51  0.006383  ( 0.032844  0.072041 -0.010713)
 58:   1369.87   0.002624   13.26  0.000598  ( 0.008825  0.021967  0.006107)
 59:   1402.86   0.000865    4.37  0.000192  (-0.004057  0.011581 -0.006467)
 60:   1413.64   0.004641   23.45  0.001024  ( 0.028507  0.011002 -0.009525)
 61:   1433.42   0.036684  185.38  0.007986  ( 0.055183  0.068299  0.016621)
 62:   1440.66   0.011764   59.45  0.002548  ( 0.001490 -0.016064  0.047832)
 63:   1456.75   0.018050   91.22  0.003867  (-0.022293  0.037531 -0.044284)
 64:   1474.52   0.039335  198.79  0.008325  (-0.009997  0.084142  0.033837)
 65:   1484.73   0.001639    8.28  0.000345  (-0.018230  0.000597 -0.003446)
 66:   1489.66   0.000852    4.31  0.000179  (-0.001792  0.001855 -0.013112)
 67:   1494.40   0.007135   36.06  0.001490  ( 0.037745 -0.007980  0.001229)
 68:   1504.59   0.005380   27.19  0.001116  (-0.026123  0.019936  0.006006)
 69:   1506.99   0.005556   28.08  0.001151  ( 0.012644 -0.011326 -0.029366)
 70:   1511.45   0.000717    3.62  0.000148  (-0.002438 -0.011803  0.001658)
 71:   1519.41   0.002362   11.94  0.000485  ( 0.018114  0.001240  0.012469)
 72:   1530.63   0.006924   34.99  0.001412  ( 0.034173  0.015270  0.003274)
 73:   1534.60   0.003161   15.97  0.000643  ( 0.006057  0.000659 -0.024610)
 74:   1555.83   0.016268   82.21  0.003263  ( 0.010175 -0.027987  0.048746)
 75:   1638.35   0.033528  169.43  0.006386  ( 0.032748  0.072293 -0.009353)
 76:   1709.00   0.166554  841.70  0.030413  (-0.069362 -0.125965 -0.098664)
 77:   1712.44   0.046427  234.62  0.008460  ( 0.046069 -0.017914 -0.077571)
 78:   1748.50   0.107422  542.87  0.019172  (-0.070180  0.113184 -0.037900)
 79:   3032.67   0.006210   31.38  0.000639  ( 0.007434 -0.019236 -0.014620)
 80:   3038.70   0.018227   92.11  0.001872  (-0.009557 -0.012423  0.040326)
 81:   3061.26   0.000620    3.13  0.000063  ( 0.002466 -0.001832  0.007334)
 82:   3062.80   0.000603    3.05  0.000061  (-0.007402  0.000311  0.002552)
 83:   3083.19   0.003922   19.82  0.000397  (-0.006675 -0.003378 -0.018467)
 84:   3087.23   0.009969   50.38  0.001008  (-0.008691  0.009513  0.029011)
 85:   3095.67   0.016565   83.71  0.001670  ( 0.038534  0.003028  0.013258)
 86:   3098.44   0.002158   10.91  0.000217  ( 0.014565  0.000748  0.002159)
 87:   3127.21   0.001577    7.97  0.000157  (-0.003359 -0.002748  0.011770)
 88:   3130.33   0.002992   15.12  0.000298  (-0.007901  0.015347  0.000578)
 89:   3162.60   0.001603    8.10  0.000158  (-0.006518  0.008406 -0.006709)
 90:   3170.06   0.004251   21.48  0.000418  ( 0.002158 -0.019784 -0.004729)
 91:   3175.39   0.000702    3.55  0.000069  ( 0.007386 -0.001515  0.003481)
 92:   3192.73   0.001166    5.89  0.000114  ( 0.006340 -0.008503 -0.001197)
 93:   3194.46   0.000511    2.58  0.000050  (-0.006420 -0.001459 -0.002557)
 94:   3577.06   0.016049   81.11  0.001400  ( 0.006432  0.036177 -0.007072)
 95:   3702.80   0.014817   74.88  0.001249  ( 0.033692 -0.007427  0.007645)

--------------------------
THERMOCHEMISTRY AT 298.15K
--------------------------

Temperature         ... 298.15 K
Pressure            ... 1.00 atm
Total Mass          ... 215.25 AMU

Throughout the following assumptions are being made:
  (1) The electronic state is orbitally nondegenerate
  (2) There are no thermally accessible electronically excited states
  (3) Hindered rotations indicated by low frequency modes are not
      treated as such but are treated as vibrations and this may
      cause some error
  (4) All equations used are the standard statistical mechanics
      equations for an ideal gas
  (5) All vibrations are strictly harmonic

freq.      28.00  E(vib)   ...       0.55
freq.      35.26  E(vib)   ...       0.54
freq.      45.80  E(vib)   ...       0.53
freq.      65.12  E(vib)   ...       0.50
freq.      70.88  E(vib)   ...       0.50
freq.      77.76  E(vib)   ...       0.49
freq.      98.46  E(vib)   ...       0.46
freq.     114.39  E(vib)   ...       0.44
freq.     132.67  E(vib)   ...       0.42
freq.     162.34  E(vib)   ...       0.39
freq.     184.68  E(vib)   ...       0.37
freq.     187.02  E(vib)   ...       0.36
freq.     201.79  E(vib)   ...       0.35
freq.     231.74  E(vib)   ...       0.32
freq.     261.30  E(vib)   ...       0.30
freq.     278.62  E(vib)   ...       0.28
freq.     349.07  E(vib)   ...       0.23
freq.     359.92  E(vib)   ...       0.22
freq.     390.63  E(vib)   ...       0.20
freq.     430.48  E(vib)   ...       0.18
freq.     449.39  E(vib)   ...       0.17
freq.     463.96  E(vib)   ...       0.16
freq.     499.10  E(vib)   ...       0.14
freq.     547.11  E(vib)   ...       0.12
freq.     575.28  E(vib)   ...       0.11
freq.     589.85  E(vib)   ...       0.10
freq.     604.84  E(vib)   ...       0.10
freq.     641.93  E(vib)   ...       0.09
freq.     688.07  E(vib)   ...       0.07
freq.     712.97  E(vib)   ...       0.07
freq.     761.47  E(vib)   ...       0.06
freq.     783.66  E(vib)   ...       0.05
freq.     827.29  E(vib)   ...       0.04
freq.     911.19  E(vib)   ...       0.03
freq.     960.76  E(vib)   ...       0.03
freq.    1002.96  E(vib)   ...       0.02
freq.    1014.76  E(vib)   ...       0.02
freq.    1039.89  E(vib)   ...       0.02
freq.    1053.01  E(vib)   ...       0.02
freq.    1062.58  E(vib)   ...       0.02
freq.    1090.00  E(vib)   ...       0.02
freq.    1098.76  E(vib)   ...       0.02
freq.    1128.56  E(vib)   ...       0.01
freq.    1135.81  E(vib)   ...       0.01
freq.    1176.15  E(vib)   ...       0.01
freq.    1184.97  E(vib)   ...       0.01
freq.    1225.76  E(vib)   ...       0.01
freq.    1253.91  E(vib)   ...       0.01
freq.    1287.34  E(vib)   ...       0.01
freq.    1289.23  E(vib)   ...       0.01
freq.    1306.28  E(vib)   ...       0.01
freq.    1330.17  E(vib)   ...       0.01
freq.    1369.87  E(vib)   ...       0.01
freq.    1402.86  E(vib)   ...       0.00
freq.    1413.64  E(vib)   ...       0.00
freq.    1433.42  E(vib)   ...       0.00
freq.    1440.66  E(vib)   ...       0.00
freq.    1456.75  E(vib)   ...       0.00
freq.    1474.52  E(vib)   ...       0.00
freq.    1484.73  E(vib)   ...       0.00
freq.    1489.66  E(vib)   ...       0.00
freq.    1494.40  E(vib)   ...       0.00
freq.    1504.59  E(vib)   ...       0.00
freq.    1506.99  E(vib)   ...       0.00
freq.    1511.45  E(vib)   ...       0.00
freq.    1519.41  E(vib)   ...       0.00
freq.    1530.63  E(vib)   ...       0.00
freq.    1534.60  E(vib)   ...       0.00
freq.    1555.83  E(vib)   ...       0.00
freq.    1638.35  E(vib)   ...       0.00
freq.    1709.00  E(vib)   ...       0.00
freq.    1712.44  E(vib)   ...       0.00
freq.    1748.50  E(vib)   ...       0.00
freq.    3032.67  E(vib)   ...       0.00
freq.    3038.70  E(vib)   ...       0.00
freq.    3061.26  E(vib)   ...       0.00
freq.    3062.80  E(vib)   ...       0.00
freq.    3083.19  E(vib)   ...       0.00
freq.    3087.23  E(vib)   ...       0.00
freq.    3095.67  E(vib)   ...       0.00
freq.    3098.44  E(vib)   ...       0.00
freq.    3127.21  E(vib)   ...       0.00
freq.    3130.33  E(vib)   ...       0.00
freq.    3162.60  E(vib)   ...       0.00
freq.    3170.06  E(vib)   ...       0.00
freq.    3175.39  E(vib)   ...       0.00
freq.    3192.73  E(vib)   ...       0.00
freq.    3194.46  E(vib)   ...       0.00
freq.    3577.06  E(vib)   ...       0.00
freq.    3702.80  E(vib)   ...       0.00

------------
INNER ENERGY
------------

The inner energy is: U= E(el) + E(ZPE) + E(vib) + E(rot) + E(trans)
    E(el)   - is the total energy from the electronic structure calculation
              = E(kin-el) + E(nuc-el) + E(el-el) + E(nuc-nuc)
    E(ZPE)  - the the zero temperature vibrational energy from the frequency calculation
    E(vib)  - the the finite temperature correction to E(ZPE) due to population
              of excited vibrational states
    E(rot)  - is the rotational thermal energy
    E(trans)- is the translational thermal energy

Summary of contributions to the inner energy U:
Electronic energy                ...   -742.79305972 Eh
Zero point energy                ...      0.27184883 Eh     170.59 kcal/mol
Thermal vibrational correction   ...      0.01477475 Eh       9.27 kcal/mol
Thermal rotational correction    ...      0.00141627 Eh       0.89 kcal/mol
Thermal translational correction ...      0.00141627 Eh       0.89 kcal/mol
-----------------------------------------------------------------------
Total thermal energy                   -742.50360360 Eh

Summary of corrections to the electronic energy:
(perhaps to be used in another calculation)
Total thermal correction                  0.01760730 Eh      11.05 kcal/mol
Non-thermal (ZPE) correction              0.27184883 Eh     170.59 kcal/mol
-----------------------------------------------------------------------
Total correction                          0.28945612 Eh     181.64 kcal/mol

--------
ENTHALPY
--------

The enthalpy is H = U + kB*T
                kB is Boltzmann's constant
Total free energy                 ...   -742.50360360 Eh
Thermal Enthalpy correction       ...      0.00094421 Eh       0.59 kcal/mol
-----------------------------------------------------------------------
Total Enthalpy                    ...   -742.50265939 Eh

Note: Only C1 symmetry has been detected, increase convergence thresholds
      if your molecule has a higher symmetry. Symmetry factor of 1.0 is
      used for the rotational entropy correction.

Note: Rotational entropy computed according to Herzberg
Infrared and Raman Spectra, Chapter V,1, Van Nostrand Reinhold, 1945
Point Group:  C1, Symmetry Number:   1
Rotational constants in cm-1:     0.021124     0.015973     0.011022

                             ****ORCA TERMINATED NORMALLY****
TOTAL RUN TIME: 0 days 0 hours 26 minutes 52 seconds 37 msec
