                         Program Version 5.0.4 -  RELEASE  -
|  1> ! OPT FREQ B3LYP 6-31G(d) D4 AUTOAUX
|  2>
|  3> %PAL NPROCS 4 END
|  4>
|  5> %maxcore 3375
|  6>
|  7> *xyzfile 0 1 /users/fjb15167/WWenergy/structures/Nse.xyz
|  8>
|  9>                          ****END OF INPUT****
 Total Charge           Charge          ....    0
 Multiplicity           Mult            ....    1
 Number of Electrons    NEL             ....  102
Dispersion correction           -0.049768531
FINAL SINGLE POINT ENERGY      -649.325484527601
Dispersion correction            ... Starting D4
Dispersion correction           -0.049478462
FINAL SINGLE POINT ENERGY      -649.326214593993
Dispersion correction            ... Starting D4
Dispersion correction           -0.049909701
FINAL SINGLE POINT ENERGY      -649.326300504035
Dispersion correction            ... Starting D4
FINAL SINGLE POINT ENERGY      -649.326338962375
FINAL SINGLE POINT ENERGY      -649.326423696268
FINAL SINGLE POINT ENERGY      -649.326437221980
FINAL SINGLE POINT ENERGY      -649.326449103996
FINAL SINGLE POINT ENERGY      -649.326454010261
Dispersion correction           -0.049706038
FINAL SINGLE POINT ENERGY      -649.326460286548
Dispersion correction            ... Starting D4
Dispersion correction           -0.049722511
FINAL SINGLE POINT ENERGY      -649.326463758587
Dispersion correction            ... Starting D4
                    ***********************HURRAY********************

CARTESIAN COORDINATES (ANGSTROEM)
---------------------------------
  C     -2.615059    1.776301   -0.516213
  H     -1.735446    2.422427   -0.580646
  H     -3.195820    2.073601    0.365718
  H     -3.238199    1.904492   -1.402296
  C     -2.218370    0.310835   -0.453982
  O     -2.653395   -0.496176   -1.274035
  N     -1.355857   -0.078317    0.548349
  C     -1.008588   -1.491847    0.666665
  H     -1.303747   -1.862827    1.653804
  H     -1.572648   -2.026244   -0.098861
  C     -0.804143    0.829710    1.548088
  H     -1.477595    1.680095    1.669707
  H     -0.767093    0.302700    2.509531
  C      0.603271    1.345408    1.239345
  H      0.875185    2.063471    2.030122
  H      1.326773    0.522936    1.274649
  C      0.501501   -1.749556    0.579650
  N      1.117929   -1.579881   -0.628829
  O      1.115173   -2.070834    1.598712
  C      2.568156   -1.679472   -0.677922
  H      2.872133   -2.255585   -1.559557
  H      3.029233   -0.681630   -0.744234
  H      2.915984   -2.172535    0.228924
  C      0.481203   -1.035845   -1.821913
  H      0.913549   -1.521565   -2.704160
  H     -0.593612   -1.212898   -1.824596
  H      0.648216    0.047296   -1.892807
  O      0.584176    1.968652   -0.041777
  H      1.483088    2.266286   -0.246438

 Multiplicity           Mult            ....    1
 Number of Electrons    NEL             ....  102
 Basis Dimension        Dim             ....  214

ORBITAL ENERGIES
----------------

  NO   OCC          E(Eh)            E(eV)
   0   2.0000     -19.153873      -521.2034
   1   2.0000     -19.102004      -519.7920
   2   2.0000     -19.099380      -519.7206
   3   2.0000     -14.358306      -390.7094
   4   2.0000     -14.354368      -390.6022
   5   2.0000     -10.277734      -279.6714
   6   2.0000     -10.272415      -279.5266
   7   2.0000     -10.233902      -278.4786
   8   2.0000     -10.222156      -278.1590
   9   2.0000     -10.208696      -277.7927
  10   2.0000     -10.200949      -277.5819
  11   2.0000     -10.196540      -277.4620
  12   2.0000     -10.171262      -276.7741
  13   2.0000      -1.033048       -28.1107
  14   2.0000      -1.026248       -27.9256
  15   2.0000      -1.020750       -27.7760
  16   2.0000      -0.931271       -25.3412
  17   2.0000      -0.923274       -25.1236
  18   2.0000      -0.765476       -20.8297
  19   2.0000      -0.748757       -20.3747
  20   2.0000      -0.717341       -19.5199
  21   2.0000      -0.702700       -19.1214
  22   2.0000      -0.669073       -18.2064
  23   2.0000      -0.637037       -17.3347
  24   2.0000      -0.554104       -15.0779
  25   2.0000      -0.540173       -14.6988
  26   2.0000      -0.532279       -14.4841
  27   2.0000      -0.510379       -13.8881
  28   2.0000      -0.477877       -13.0037
  29   2.0000      -0.471666       -12.8347
  30   2.0000      -0.461885       -12.5685
  31   2.0000      -0.456404       -12.4194
  32   2.0000      -0.453135       -12.3304
  33   2.0000      -0.439152       -11.9499
  34   2.0000      -0.414806       -11.2875
  35   2.0000      -0.406443       -11.0599
  36   2.0000      -0.400487       -10.8978
  37   2.0000      -0.396261       -10.7828
  38   2.0000      -0.395312       -10.7570
  39   2.0000      -0.392225       -10.6730
  40   2.0000      -0.385360       -10.4862
  41   2.0000      -0.377703       -10.2778
  42   2.0000      -0.371281       -10.1031
  43   2.0000      -0.355735        -9.6800
  44   2.0000      -0.351000        -9.5512
  45   2.0000      -0.337736        -9.1903
  46   2.0000      -0.281702        -7.6655
  47   2.0000      -0.252814        -6.8794
  48   2.0000      -0.243520        -6.6265
  49   2.0000      -0.232740        -6.3332
  50   2.0000      -0.229645        -6.2490
  51   0.0000       0.020699         0.5633
  52   0.0000       0.033836         0.9207
  53   0.0000       0.052072         1.4170
  54   0.0000       0.099882         2.7179
  55   0.0000       0.108313         2.9473

MULLIKEN ATOMIC CHARGES
-----------------------
   0 C :   -0.565269
   1 H :    0.199643
   2 H :    0.163620
   3 H :    0.181166
   4 C :    0.539461
   5 O :   -0.478557
   6 N :   -0.370793
   7 C :   -0.248968
   8 H :    0.169759
   9 H :    0.204870
  10 C :   -0.170250
  11 H :    0.164034
  12 H :    0.167655
  13 C :   -0.036337
  14 H :    0.126764
  15 H :    0.164146
  16 C :    0.516854
  17 N :   -0.362819
  18 O :   -0.491835
  19 C :   -0.318510
  20 H :    0.152910
  21 H :    0.137427
  22 H :    0.200475
  23 C :   -0.347267
  24 H :    0.147172
  25 H :    0.210183
  26 H :    0.161649
  27 O :   -0.624195
  28 H :    0.407011
Sum of atomic charges:   -0.0000000

LOEWDIN ATOMIC CHARGES
----------------------
   0 C :   -0.397428
   1 H :    0.155314
   2 H :    0.139930
   3 H :    0.150028
   4 C :    0.118069
   5 O :   -0.287110
   6 N :   -0.077571
   7 C :   -0.179697
   8 H :    0.139450
   9 H :    0.160906
  10 C :   -0.164035
  11 H :    0.137678
  12 H :    0.139451
  13 C :   -0.119225
  14 H :    0.109644
  15 H :    0.123918
  16 C :    0.090559
  17 N :   -0.081410
  18 O :   -0.294068
  19 C :   -0.277985
  20 H :    0.126183
  21 H :    0.114348
  22 H :    0.154571
  23 C :   -0.289920
  24 H :    0.124547
  25 H :    0.155051
  26 H :    0.125842
  27 O :   -0.413800
  28 H :    0.316761

  Mayer bond orders larger than 0.100000
B(  0-C ,  1-H ) :   0.9101 B(  0-C ,  2-H ) :   0.9290 B(  0-C ,  3-H ) :   0.9413
B(  0-C ,  4-C ) :   0.9838 B(  4-C ,  5-O ) :   1.7960 B(  4-C ,  6-N ) :   1.1172
B(  6-N ,  7-C ) :   0.9546 B(  6-N , 10-C ) :   0.9703 B(  7-C ,  8-H ) :   0.9203
B(  7-C ,  9-H ) :   0.8909 B(  7-C , 16-C ) :   0.9325 B( 10-C , 11-H ) :   0.9240
B( 10-C , 12-H ) :   0.9239 B( 10-C , 13-C ) :   0.9903 B( 13-C , 14-H ) :   0.9236
B( 13-C , 15-H ) :   0.9066 B( 13-C , 27-O ) :   0.9494 B( 16-C , 17-N ) :   1.1633
B( 16-C , 18-O ) :   1.7776 B( 17-N , 19-C ) :   0.9627 B( 17-N , 23-C ) :   0.9506
B( 19-C , 20-H ) :   0.9413 B( 19-C , 21-H ) :   0.9395 B( 19-C , 22-H ) :   0.9202
B( 23-C , 24-H ) :   0.9389 B( 23-C , 25-H ) :   0.8974 B( 23-C , 26-H ) :   0.9224
B( 27-O , 28-H ) :   0.7812

Dispersion correction           -0.049722965
FINAL SINGLE POINT ENERGY      -649.326465967380

DIPOLE MOMENT
-------------
                                X             Y             Z
Electronic contribution:     -3.19398      -4.30941       1.99442
Nuclear contribution   :      4.02326       5.56556      -1.94313
                        -----------------------------------------
Total Dipole Moment    :      0.82928       1.25615       0.05129
                        -----------------------------------------
Magnitude (a.u.)       :      1.50607
Magnitude (Debye)      :      3.82813

Dispersion correction in the Hessian             ... Starting D4

VIBRATIONAL FREQUENCIES
-----------------------

Scaling factor for frequencies =  1.000000000  (already applied!)

   0:         0.00 cm**-1
   1:         0.00 cm**-1
   2:         0.00 cm**-1
   3:         0.00 cm**-1
   4:         0.00 cm**-1
   5:         0.00 cm**-1
   6:        51.35 cm**-1
   7:        67.87 cm**-1
   8:        73.59 cm**-1
   9:       104.83 cm**-1
  10:       108.60 cm**-1
  11:       125.59 cm**-1
  12:       146.56 cm**-1
  13:       166.13 cm**-1
  14:       199.52 cm**-1
  15:       216.83 cm**-1
  16:       244.57 cm**-1
  17:       248.00 cm**-1
  18:       273.36 cm**-1
  19:       282.01 cm**-1
  20:       303.34 cm**-1
  21:       361.14 cm**-1
  22:       400.12 cm**-1
  23:       432.98 cm**-1
  24:       458.58 cm**-1
  25:       488.70 cm**-1
  26:       512.94 cm**-1
  27:       583.94 cm**-1
  28:       596.50 cm**-1
  29:       620.13 cm**-1
  30:       689.72 cm**-1
  31:       757.37 cm**-1
  32:       808.50 cm**-1
  33:       884.05 cm**-1
  34:       921.29 cm**-1
  35:       979.41 cm**-1
  36:      1008.25 cm**-1
  37:      1018.44 cm**-1
  38:      1072.13 cm**-1
  39:      1077.09 cm**-1
  40:      1096.37 cm**-1
  41:      1104.92 cm**-1
  42:      1122.55 cm**-1
  43:      1140.05 cm**-1
  44:      1184.43 cm**-1
  45:      1189.70 cm**-1
  46:      1231.30 cm**-1
  47:      1242.64 cm**-1
  48:      1268.73 cm**-1
  49:      1295.03 cm**-1
  50:      1304.69 cm**-1
  51:      1341.02 cm**-1
  52:      1372.75 cm**-1
  53:      1412.17 cm**-1
  54:      1425.32 cm**-1
  55:      1445.62 cm**-1
  56:      1457.00 cm**-1
  57:      1464.78 cm**-1
  58:      1476.55 cm**-1
  59:      1496.87 cm**-1
  60:      1500.87 cm**-1
  61:      1513.52 cm**-1
  62:      1520.80 cm**-1
  63:      1526.46 cm**-1
  64:      1527.76 cm**-1
  65:      1536.93 cm**-1
  66:      1541.63 cm**-1
  67:      1557.91 cm**-1
  68:      1565.64 cm**-1
  69:      1746.39 cm**-1
  70:      1750.27 cm**-1
  71:      3001.16 cm**-1
  72:      3010.73 cm**-1
  73:      3039.33 cm**-1
  74:      3058.60 cm**-1
  75:      3067.26 cm**-1
  76:      3078.27 cm**-1
  77:      3084.91 cm**-1
  78:      3087.58 cm**-1
  79:      3096.48 cm**-1
  80:      3134.83 cm**-1
  81:      3143.15 cm**-1
  82:      3157.00 cm**-1
  83:      3177.94 cm**-1
  84:      3183.16 cm**-1
  85:      3188.85 cm**-1
  86:      3755.15 cm**-1

IR SPECTRUM
-----------

 Mode   freq       eps      Int      T**2         TX        TY        TZ
       cm**-1   L/(mol*cm) km/mol    a.u.
----------------------------------------------------------------------------
  6:     51.35   0.000093    0.47  0.000562  (-0.018970  0.013164  0.005389)
  7:     67.87   0.000632    3.20  0.002908  ( 0.034063  0.041515 -0.004906)
  8:     73.59   0.000528    2.67  0.002239  ( 0.000437 -0.046549  0.008487)
  9:    104.83   0.000222    1.12  0.000661  (-0.007837  0.023157  0.007973)
 10:    108.60   0.000655    3.31  0.001883  (-0.026629  0.032223  0.011654)
 11:    125.59   0.000737    3.73  0.001832  (-0.032730  0.023447  0.014519)
 12:    146.56   0.001248    6.31  0.002657  (-0.049057 -0.012741  0.009405)
 13:    166.13   0.000719    3.63  0.001351  ( 0.004995  0.036283  0.003077)
 14:    199.52   0.002873   14.52  0.004493  (-0.007265  0.059203  0.030584)
 15:    216.83   0.000691    3.49  0.000995  ( 0.001502  0.030409  0.008221)
 16:    244.57   0.006903   34.89  0.008808  ( 0.021442 -0.080713 -0.042827)
 17:    248.00   0.008273   41.81  0.010410  ( 0.023978 -0.092082 -0.036829)
 18:    273.36   0.010702   54.08  0.012217  ( 0.004788 -0.103806 -0.037660)
 19:    282.01   0.003096   15.65  0.003426  ( 0.004017  0.058081 -0.006070)
 20:    303.34   0.000668    3.38  0.000687  ( 0.009455  0.003875  0.024143)
 21:    361.14   0.001440    7.28  0.001244  (-0.023695  0.000617  0.026127)
 22:    400.12   0.000829    4.19  0.000646  ( 0.019414  0.013982 -0.008593)
 23:    432.98   0.000404    2.04  0.000291  ( 0.011230 -0.010415 -0.007523)
 24:    458.58   0.001353    6.84  0.000921  ( 0.021123  0.013045  0.017452)
 25:    488.70   0.002121   10.72  0.001354  ( 0.022262 -0.028913 -0.004788)
 26:    512.94   0.003068   15.50  0.001866  (-0.026873 -0.031357  0.012683)
 27:    583.94   0.001353    6.84  0.000723  (-0.024873  0.010215 -0.000235)
 28:    596.50   0.001302    6.58  0.000681  (-0.022726  0.006020 -0.011339)
 29:    620.13   0.003528   17.83  0.001775  (-0.013212 -0.016839  0.036293)
 30:    689.72   0.000614    3.10  0.000278  ( 0.003552 -0.001732  0.016197)
 31:    757.37   0.000653    3.30  0.000269  (-0.012077  0.006833  0.008758)
 32:    808.50   0.004104   20.74  0.001584  (-0.016786  0.009384  0.034848)
 33:    884.05   0.002228   11.26  0.000786  (-0.020596 -0.001603  0.018963)
 34:    921.29   0.000471    2.38  0.000160  (-0.010517 -0.002703  0.006463)
 35:    979.41   0.001221    6.17  0.000389  ( 0.011732  0.000184 -0.015857)
 36:   1008.25   0.002768   13.99  0.000857  (-0.015737 -0.002767  0.024521)
 37:   1018.44   0.004122   20.83  0.001263  ( 0.034158  0.007977  0.005724)
 38:   1072.13   0.002409   12.17  0.000701  (-0.022757  0.010268 -0.008819)
 39:   1077.09   0.007709   38.96  0.002234  (-0.008478  0.027007 -0.037846)
 40:   1096.37   0.000583    2.94  0.000166  ( 0.012007  0.001736  0.004320)
 41:   1104.92   0.004573   23.11  0.001291  ( 0.007288 -0.017063  0.030777)
 42:   1122.55   0.004401   22.24  0.001223  ( 0.013427 -0.002253 -0.032219)
 43:   1140.05   0.001035    5.23  0.000283  ( 0.011742 -0.012030 -0.000910)
 44:   1184.43   0.006146   31.06  0.001619  ( 0.014732 -0.001427 -0.037420)
 45:   1189.70   0.000145    0.73  0.000038  ( 0.005641 -0.002463  0.000286)
 46:   1231.30   0.005943   30.03  0.001506  (-0.006793 -0.022598  0.030811)
 47:   1242.64   0.011818   59.72  0.002968  (-0.022092  0.023329 -0.043995)
 48:   1268.73   0.011637   58.81  0.002862  ( 0.035215 -0.016732  0.036635)
 49:   1295.03   0.010773   54.44  0.002596  (-0.049756  0.010633  0.002712)
 50:   1304.69   0.010790   54.53  0.002581  (-0.031442  0.039210 -0.007401)
 51:   1341.02   0.003134   15.84  0.000729  ( 0.019854  0.015580 -0.009606)
 52:   1372.75   0.000111    0.56  0.000025  ( 0.002139 -0.000379  0.004527)
 53:   1412.17   0.002761   13.95  0.000610  ( 0.004583  0.024264  0.000529)
 54:   1425.32   0.002924   14.77  0.000640  (-0.007817 -0.013351 -0.020019)
 55:   1445.62   0.009537   48.20  0.002059  ( 0.034412 -0.000694 -0.029564)
 56:   1457.00   0.012330   62.31  0.002641  ( 0.048152 -0.010976 -0.014205)
 57:   1464.78   0.016148   81.61  0.003440  (-0.043347  0.023318 -0.031900)
 58:   1476.55   0.016043   81.08  0.003391  (-0.032528  0.014886 -0.045946)
 59:   1496.87   0.001227    6.20  0.000256  ( 0.010457  0.011523  0.003707)
 60:   1500.87   0.002028   10.25  0.000422  (-0.009457  0.004236  0.017727)
 61:   1513.52   0.003411   17.24  0.000703  (-0.014373  0.019305 -0.011139)
 62:   1520.80   0.003483   17.60  0.000715  ( 0.005674  0.018292 -0.018652)
 63:   1526.46   0.000246    1.24  0.000050  (-0.005884 -0.003955 -0.000224)
 64:   1527.76   0.000741    3.75  0.000151  ( 0.002155 -0.011607 -0.003466)
 65:   1536.93   0.001019    5.15  0.000207  ( 0.011820  0.008178 -0.000634)
 66:   1541.63   0.005980   30.22  0.001210  (-0.000317 -0.029516 -0.018416)
 67:   1557.91   0.001699    8.59  0.000340  ( 0.010301  0.007898 -0.013109)
 68:   1565.64   0.009311   47.05  0.001856  ( 0.031876 -0.005482 -0.028456)
 69:   1746.39   0.028977  146.44  0.005178  (-0.005481 -0.041481  0.058543)
 70:   1750.27   0.080179  405.19  0.014296  (-0.049492 -0.029486 -0.104769)
 71:   3001.16   0.013529   68.37  0.001407  ( 0.013734  0.018189  0.029788)
 72:   3010.73   0.010411   52.61  0.001079  ( 0.028188  0.015871 -0.005711)
 73:   3039.33   0.008984   45.40  0.000922  (-0.007783 -0.011076  0.027189)
 74:   3058.60   0.001382    6.99  0.000141  ( 0.008995 -0.006282 -0.004548)
 75:   3067.26   0.005436   27.47  0.000553  (-0.001560  0.006446  0.022563)
 76:   3078.27   0.005268   26.62  0.000534  ( 0.002897  0.013970 -0.018180)
 77:   3084.91   0.009324   47.12  0.000943  ( 0.010724 -0.023192 -0.017040)
 78:   3087.58   0.002767   13.99  0.000280  (-0.009391  0.013837 -0.000253)
 79:   3096.48   0.006284   31.76  0.000633  ( 0.006634 -0.018569 -0.015637)
 80:   3134.83   0.000959    4.85  0.000095  (-0.001117  0.000255  0.009704)
 81:   3143.15   0.004542   22.95  0.000451  (-0.012481  0.017102  0.001633)
 82:   3157.00   0.001047    5.29  0.000103  (-0.008755  0.004446  0.002656)
 83:   3177.94   0.000951    4.81  0.000093  ( 0.004879 -0.000773  0.008306)
 84:   3183.16   0.000961    4.85  0.000094  (-0.006382  0.007255  0.000904)
 85:   3188.85   0.000231    1.17  0.000023  ( 0.003857 -0.001508  0.002334)
 86:   3755.15   0.004255   21.50  0.000354  (-0.015032 -0.008722  0.007181)

--------------------------
THERMOCHEMISTRY AT 298.15K
--------------------------

Temperature         ... 298.15 K
Pressure            ... 1.00 atm
Total Mass          ... 188.23 AMU

Throughout the following assumptions are being made:
  (1) The electronic state is orbitally nondegenerate
  (2) There are no thermally accessible electronically excited states
  (3) Hindered rotations indicated by low frequency modes are not
      treated as such but are treated as vibrations and this may
      cause some error
  (4) All equations used are the standard statistical mechanics
      equations for an ideal gas
  (5) All vibrations are strictly harmonic

freq.      51.35  E(vib)   ...       0.52
freq.      67.87  E(vib)   ...       0.50
freq.      73.59  E(vib)   ...       0.49
freq.     104.83  E(vib)   ...       0.46
freq.     108.60  E(vib)   ...       0.45
freq.     125.59  E(vib)   ...       0.43
freq.     146.56  E(vib)   ...       0.41
freq.     166.13  E(vib)   ...       0.39
freq.     199.52  E(vib)   ...       0.35
freq.     216.83  E(vib)   ...       0.34
freq.     244.57  E(vib)   ...       0.31
freq.     248.00  E(vib)   ...       0.31
freq.     273.36  E(vib)   ...       0.29
freq.     282.01  E(vib)   ...       0.28
freq.     303.34  E(vib)   ...       0.26
freq.     361.14  E(vib)   ...       0.22
freq.     400.12  E(vib)   ...       0.19
freq.     432.98  E(vib)   ...       0.17
freq.     458.58  E(vib)   ...       0.16
freq.     488.70  E(vib)   ...       0.15
freq.     512.94  E(vib)   ...       0.13
freq.     583.94  E(vib)   ...       0.11
freq.     596.50  E(vib)   ...       0.10
freq.     620.13  E(vib)   ...       0.09
freq.     689.72  E(vib)   ...       0.07
freq.     757.37  E(vib)   ...       0.06
freq.     808.50  E(vib)   ...       0.05
freq.     884.05  E(vib)   ...       0.04
freq.     921.29  E(vib)   ...       0.03
freq.     979.41  E(vib)   ...       0.03
freq.    1008.25  E(vib)   ...       0.02
freq.    1018.44  E(vib)   ...       0.02
freq.    1072.13  E(vib)   ...       0.02
freq.    1077.09  E(vib)   ...       0.02
freq.    1096.37  E(vib)   ...       0.02
freq.    1104.92  E(vib)   ...       0.02
freq.    1122.55  E(vib)   ...       0.01
freq.    1140.05  E(vib)   ...       0.01
freq.    1184.43  E(vib)   ...       0.01
freq.    1189.70  E(vib)   ...       0.01
freq.    1231.30  E(vib)   ...       0.01
freq.    1242.64  E(vib)   ...       0.01
freq.    1268.73  E(vib)   ...       0.01
freq.    1295.03  E(vib)   ...       0.01
freq.    1304.69  E(vib)   ...       0.01
freq.    1341.02  E(vib)   ...       0.01
freq.    1372.75  E(vib)   ...       0.01
freq.    1412.17  E(vib)   ...       0.00
freq.    1425.32  E(vib)   ...       0.00
freq.    1445.62  E(vib)   ...       0.00
freq.    1457.00  E(vib)   ...       0.00
freq.    1464.78  E(vib)   ...       0.00
freq.    1476.55  E(vib)   ...       0.00
freq.    1496.87  E(vib)   ...       0.00
freq.    1500.87  E(vib)   ...       0.00
freq.    1513.52  E(vib)   ...       0.00
freq.    1520.80  E(vib)   ...       0.00
freq.    1526.46  E(vib)   ...       0.00
freq.    1527.76  E(vib)   ...       0.00
freq.    1536.93  E(vib)   ...       0.00
freq.    1541.63  E(vib)   ...       0.00
freq.    1557.91  E(vib)   ...       0.00
freq.    1565.64  E(vib)   ...       0.00
freq.    1746.39  E(vib)   ...       0.00
freq.    1750.27  E(vib)   ...       0.00
freq.    3001.16  E(vib)   ...       0.00
freq.    3010.73  E(vib)   ...       0.00
freq.    3039.33  E(vib)   ...       0.00
freq.    3058.60  E(vib)   ...       0.00
freq.    3067.26  E(vib)   ...       0.00
freq.    3078.27  E(vib)   ...       0.00
freq.    3084.91  E(vib)   ...       0.00
freq.    3087.58  E(vib)   ...       0.00
freq.    3096.48  E(vib)   ...       0.00
freq.    3134.83  E(vib)   ...       0.00
freq.    3143.15  E(vib)   ...       0.00
freq.    3157.00  E(vib)   ...       0.00
freq.    3177.94  E(vib)   ...       0.00
freq.    3183.16  E(vib)   ...       0.00
freq.    3188.85  E(vib)   ...       0.00
freq.    3755.15  E(vib)   ...       0.00

------------
INNER ENERGY
------------

The inner energy is: U= E(el) + E(ZPE) + E(vib) + E(rot) + E(trans)
    E(el)   - is the total energy from the electronic structure calculation
              = E(kin-el) + E(nuc-el) + E(el-el) + E(nuc-nuc)
    E(ZPE)  - the the zero temperature vibrational energy from the frequency calculation
    E(vib)  - the the finite temperature correction to E(ZPE) due to population
              of excited vibrational states
    E(rot)  - is the rotational thermal energy
    E(trans)- is the translational thermal energy

Summary of contributions to the inner energy U:
Electronic energy                ...   -649.32646597 Eh
Zero point energy                ...      0.25038997 Eh     157.12 kcal/mol
Thermal vibrational correction   ...      0.01217875 Eh       7.64 kcal/mol
Thermal rotational correction    ...      0.00141627 Eh       0.89 kcal/mol
Thermal translational correction ...      0.00141627 Eh       0.89 kcal/mol
-----------------------------------------------------------------------
Total thermal energy                   -649.06106470 Eh

Summary of corrections to the electronic energy:
(perhaps to be used in another calculation)
Total thermal correction                  0.01501130 Eh       9.42 kcal/mol
Non-thermal (ZPE) correction              0.25038997 Eh     157.12 kcal/mol
-----------------------------------------------------------------------
Total correction                          0.26540127 Eh     166.54 kcal/mol

--------
ENTHALPY
--------

The enthalpy is H = U + kB*T
                kB is Boltzmann's constant
Total free energy                 ...   -649.06106470 Eh
Thermal Enthalpy correction       ...      0.00094421 Eh       0.59 kcal/mol
-----------------------------------------------------------------------
Total Enthalpy                    ...   -649.06012049 Eh

Note: Only C1 symmetry has been detected, increase convergence thresholds
      if your molecule has a higher symmetry. Symmetry factor of 1.0 is
      used for the rotational entropy correction.

Note: Rotational entropy computed according to Herzberg
Infrared and Raman Spectra, Chapter V,1, Van Nostrand Reinhold, 1945
Point Group:  C1, Symmetry Number:   1
Rotational constants in cm-1:     0.035454     0.020913     0.018864

Vibrational entropy computed according to the QRRHO of S. Grimme
Chem.Eur.J. 2012 18 9955

-------
ENTROPY
-------

The entropy contributions are T*S = T*(S(el)+S(vib)+S(rot)+S(trans))

                             ****ORCA TERMINATED NORMALLY****
TOTAL RUN TIME: 0 days 0 hours 21 minutes 43 seconds 184 msec
