                         Program Version 5.0.4 -  RELEASE  -
|  1> ! OPT FREQ B3LYP 6-31+G(d) D4 AUTOAUX CPCM(water)
|  2>
|  3> %PAL NPROCS 4 END
|  4>
|  5> %maxcore 3375
|  6>
|  7> *xyzfile 1 1 /users/fjb15167/WWenergy/structures/Nk.xyz
|  8>
|  9>                          ****END OF INPUT****
 Total Charge           Charge          ....    1
 Multiplicity           Mult            ....    1
 Number of Electrons    NEL             ....  118
Dispersion correction           -0.060484452
FINAL SINGLE POINT ENERGY      -708.553062094330
Dispersion correction            ... Starting D4
Dispersion correction           -0.058347725
FINAL SINGLE POINT ENERGY      -708.553398793159
Dispersion correction            ... Starting D4
Dispersion correction           -0.058916922
FINAL SINGLE POINT ENERGY      -708.556857050879
Dispersion correction            ... Starting D4
FINAL SINGLE POINT ENERGY      -708.557254869440
FINAL SINGLE POINT ENERGY      -708.557454776218
FINAL SINGLE POINT ENERGY      -708.557403927354
FINAL SINGLE POINT ENERGY      -708.557642708720
FINAL SINGLE POINT ENERGY      -708.557653599555
FINAL SINGLE POINT ENERGY      -708.557662877396
FINAL SINGLE POINT ENERGY      -708.557667399955
FINAL SINGLE POINT ENERGY      -708.557668789559
Dispersion correction           -0.059280247
FINAL SINGLE POINT ENERGY      -708.557668617221
Dispersion correction            ... Starting D4
Dispersion correction           -0.059282932
FINAL SINGLE POINT ENERGY      -708.557670192032
Dispersion correction            ... Starting D4
                    ***********************HURRAY********************

CARTESIAN COORDINATES (ANGSTROEM)
---------------------------------
  C      0.612690   -2.335510    2.230258
  H      1.656927   -2.156820    1.959965
  H      0.422181   -3.412132    2.135541
  H      0.454304   -2.044200    3.270436
  C     -0.351028   -1.554058    1.362739
  O     -1.286689   -0.904865    1.865791
  N     -0.178453   -1.580944    0.011798
  C     -1.235209   -0.952117   -0.786669
  H     -0.933481   -0.989159   -1.837047
  H     -2.156941   -1.529009   -0.687791
  C      0.727933   -2.534619   -0.663593
  H      0.712193   -3.487638   -0.125953
  H      0.289255   -2.726224   -1.646641
  C      2.183328   -2.075746   -0.854826
  H      2.737042   -2.146201    0.089351
  H      2.646847   -2.804683   -1.530515
  C     -1.448349    0.526726   -0.456661
  N     -2.713585    0.981920   -0.370315
  O     -0.464765    1.292031   -0.361909
  C     -3.892208    0.105735   -0.317054
  H     -4.765436    0.728835   -0.116781
  H     -4.052412   -0.411459   -1.268807
  H     -3.799778   -0.628293    0.489058
  C     -2.950475    2.409938   -0.149537
  H     -3.176893    2.603519    0.907400
  H     -2.063905    2.975129   -0.434199
  H     -3.801252    2.729749   -0.758187
  C      2.326926   -0.656157   -1.434366
  H      3.168754   -0.612752   -2.135666
  H      1.429267   -0.392035   -2.007333
  C      2.553204    0.375478   -0.328782
  H      1.909538    0.197907    0.533124
  H      3.594852    0.391719    0.000496
  N      2.201556    1.750588   -0.816858
  H      2.492912    2.477993   -0.156360
  H      2.635204    1.966755   -1.720555
  H      1.167946    1.789598   -0.906551

 Multiplicity           Mult            ....    1
 Number of Electrons    NEL             ....  118
 Basis Dimension        Dim             ....  314

ORBITAL ENERGIES
----------------

  NO   OCC          E(Eh)            E(eV)
   0   2.0000     -19.129212      -520.5323
   1   2.0000     -19.127558      -520.4873
   2   2.0000     -14.426358      -392.5611
   3   2.0000     -14.375407      -391.1747
   4   2.0000     -14.372288      -391.0898
   5   2.0000     -10.299502      -280.2637
   6   2.0000     -10.294272      -280.1214
   7   2.0000     -10.233545      -278.4689
   8   2.0000     -10.226887      -278.2877
   9   2.0000     -10.219941      -278.0987
  10   2.0000     -10.209978      -277.8276
  11   2.0000     -10.205185      -277.6972
  12   2.0000     -10.189021      -277.2574
  13   2.0000     -10.184615      -277.1375
  14   2.0000     -10.180119      -277.0151
  15   2.0000      -1.051385       -28.6096
  16   2.0000      -1.039149       -28.2767
  17   2.0000      -0.985764       -26.8240
  18   2.0000      -0.941544       -25.6207
  19   2.0000      -0.941046       -25.6072
  20   2.0000      -0.804609       -21.8945
  21   2.0000      -0.770152       -20.9569
  22   2.0000      -0.741108       -20.1666
  23   2.0000      -0.727125       -19.7861
  24   2.0000      -0.716042       -19.4845
  25   2.0000      -0.683233       -18.5917
  26   2.0000      -0.662187       -18.0190
  27   2.0000      -0.613251       -16.6874
  28   2.0000      -0.580135       -15.7863
  29   2.0000      -0.565320       -15.3831
  30   2.0000      -0.550478       -14.9793
  31   2.0000      -0.529139       -14.3986
  32   2.0000      -0.517762       -14.0890
  33   2.0000      -0.508106       -13.8263
  34   2.0000      -0.500126       -13.6091
  35   2.0000      -0.478573       -13.0226
  36   2.0000      -0.474773       -12.9192
  37   2.0000      -0.469972       -12.7886
  38   2.0000      -0.463066       -12.6007
  39   2.0000      -0.447807       -12.1854
  40   2.0000      -0.435548       -11.8519
  41   2.0000      -0.425548       -11.5798
  42   2.0000      -0.415565       -11.3081
  43   2.0000      -0.410403       -11.1676
  44   2.0000      -0.407609       -11.0916
  45   2.0000      -0.405803       -11.0425
  46   2.0000      -0.397598       -10.8192
  47   2.0000      -0.393155       -10.6983
  48   2.0000      -0.389352       -10.5948
  49   2.0000      -0.380896       -10.3647
  50   2.0000      -0.377952       -10.2846
  51   2.0000      -0.356854        -9.7105
  52   2.0000      -0.354482        -9.6460
  53   2.0000      -0.344670        -9.3789
  54   2.0000      -0.340818        -9.2741
  55   2.0000      -0.277056        -7.5391
  56   2.0000      -0.269820        -7.3422
  57   2.0000      -0.253357        -6.8942
  58   2.0000      -0.252737        -6.8773
  59   0.0000      -0.004047        -0.1101
  60   0.0000       0.003156         0.0859
  61   0.0000       0.003991         0.1086
  62   0.0000       0.012745         0.3468
  63   0.0000       0.015584         0.4241

MULLIKEN ATOMIC CHARGES
-----------------------
   0 C :   -1.011190
   1 H :    0.249455
   2 H :    0.260317
   3 H :    0.243815
   4 C :    0.850845
   5 O :   -0.600624
   6 N :   -0.096625
   7 C :   -0.811066
   8 H :    0.263878
   9 H :    0.249168
  10 C :   -0.358324
  11 H :    0.232052
  12 H :    0.234825
  13 C :   -0.443393
  14 H :    0.223040
  15 H :    0.226037
  16 C :    0.518536
  17 N :    0.011955
  18 O :   -0.689095
  19 C :   -0.534878
  20 H :    0.231464
  21 H :    0.240652
  22 H :    0.246454
  23 C :   -0.521136
  24 H :    0.234751
  25 H :    0.241582
  26 H :    0.231647
  27 C :   -0.349459
  28 H :    0.231058
  29 H :    0.233363
  30 C :   -0.133537
  31 H :    0.272072
  32 H :    0.256067
  33 N :   -1.049208
  34 H :    0.520872
  35 H :    0.516694
  36 H :    0.577935
Sum of atomic charges:    1.0000000

LOEWDIN ATOMIC CHARGES
----------------------
   0 C :   -0.466234
   1 H :    0.225283
   2 H :    0.228065
   3 H :    0.218730
   4 C :    0.109838
   5 O :   -0.441953
   6 N :   -0.310341
   7 C :   -0.211315
   8 H :    0.250963
   9 H :    0.241697
  10 C :   -0.252073
  11 H :    0.225871
  12 H :    0.229630
  13 C :   -0.368319
  14 H :    0.214852
  15 H :    0.209599
  16 C :    0.125088
  17 N :   -0.313170
  18 O :   -0.493257
  19 C :   -0.362312
  20 H :    0.219034
  21 H :    0.215046
  22 H :    0.221570
  23 C :   -0.347569
  24 H :    0.212210
  25 H :    0.229205
  26 H :    0.210424
  27 C :   -0.366706
  28 H :    0.211002
  29 H :    0.226657
  30 C :   -0.253804
  31 H :    0.240172
  32 H :    0.223566
  33 N :   -0.406075
  34 H :    0.361415
  35 H :    0.362335
  36 H :    0.380875

  Mayer bond orders larger than 0.100000
B(  0-C ,  1-H ) :   0.9722 B(  0-C ,  2-H ) :   0.9339 B(  0-C ,  3-H ) :   1.0093
B(  0-C ,  4-C ) :   0.3709 B(  4-C ,  5-O ) :   1.6741 B(  4-C ,  6-N ) :   1.2534
B(  4-C , 16-C ) :  -0.1237 B(  5-O ,  7-C ) :  -0.1688 B(  5-O , 16-C ) :   0.1408
B(  6-N ,  7-C ) :   0.8436 B(  6-N , 10-C ) :   0.7116 B(  7-C ,  8-H ) :   0.9766
B(  7-C ,  9-H ) :   1.0724 B(  7-C , 16-C ) :   0.7426 B(  7-C , 17-N ) :  -0.2619
B(  7-C , 18-O ) :  -0.1479 B(  9-H , 16-C ) :  -0.1098 B( 10-C , 11-H ) :   0.9836
B( 10-C , 12-H ) :   0.9921 B( 10-C , 13-C ) :   0.7083 B( 13-C , 14-H ) :   1.0086
B( 13-C , 15-H ) :   0.9907 B( 13-C , 27-C ) :   0.6100 B( 16-C , 17-N ) :   1.3653
B( 16-C , 18-O ) :   1.7811 B( 17-N , 19-C ) :   0.7546 B( 17-N , 23-C ) :   0.8295
B( 18-O , 36-H ) :   0.1154 B( 19-C , 20-H ) :   0.9419 B( 19-C , 21-H ) :   0.9320
B( 19-C , 22-H ) :   0.9288 B( 23-C , 24-H ) :   0.9377 B( 23-C , 25-H ) :   0.9455
B( 23-C , 26-H ) :   0.9311 B( 27-C , 28-H ) :   0.9672 B( 27-C , 29-H ) :   0.9869
B( 27-C , 30-C ) :   0.7741 B( 30-C , 31-H ) :   0.9598 B( 30-C , 32-H ) :   0.9393
B( 30-C , 33-N ) :   0.4891 B( 33-N , 34-H ) :   0.6863 B( 33-N , 35-H ) :   0.6789
B( 33-N , 36-H ) :   0.5373

Dispersion correction           -0.059281949
FINAL SINGLE POINT ENERGY      -708.557670960541

DIPOLE MOMENT
-------------
                                X             Y             Z
Electronic contribution:     -2.30930       2.07220       1.39463
Nuclear contribution   :      5.74459      -0.73400      -4.11046
                        -----------------------------------------
Total Dipole Moment    :      3.43528       1.33820      -2.71583
                        -----------------------------------------
Magnitude (a.u.)       :      4.57905
Magnitude (Debye)      :     11.63902

Dispersion correction in the Hessian             ... Starting D4

VIBRATIONAL FREQUENCIES
-----------------------

Scaling factor for frequencies =  1.000000000  (already applied!)

   0:         0.00 cm**-1
   1:         0.00 cm**-1
   2:         0.00 cm**-1
   3:         0.00 cm**-1
   4:         0.00 cm**-1
   5:         0.00 cm**-1
   6:       -19.94 cm**-1 ***imaginary mode***
   7:        31.15 cm**-1
   8:        49.20 cm**-1
   9:        68.33 cm**-1
  10:        74.26 cm**-1
  11:        85.58 cm**-1
  12:       102.92 cm**-1
  13:       118.66 cm**-1
  14:       127.93 cm**-1
  15:       149.15 cm**-1
  16:       155.93 cm**-1
  17:       185.89 cm**-1
  18:       207.97 cm**-1
  19:       256.59 cm**-1
  20:       267.20 cm**-1
  21:       284.57 cm**-1
  22:       300.38 cm**-1
  23:       320.94 cm**-1
  24:       340.80 cm**-1
  25:       366.52 cm**-1
  26:       404.49 cm**-1
  27:       409.99 cm**-1
  28:       457.76 cm**-1
  29:       483.05 cm**-1
  30:       505.89 cm**-1
  31:       593.51 cm**-1
  32:       603.99 cm**-1
  33:       622.16 cm**-1
  34:       656.91 cm**-1
  35:       732.40 cm**-1
  36:       771.90 cm**-1
  37:       829.48 cm**-1
  38:       863.12 cm**-1
  39:       880.96 cm**-1
  40:       923.13 cm**-1
  41:       954.00 cm**-1
  42:       970.84 cm**-1
  43:      1002.10 cm**-1
  44:      1010.82 cm**-1
  45:      1023.66 cm**-1
  46:      1037.84 cm**-1
  47:      1062.46 cm**-1
  48:      1083.55 cm**-1
  49:      1084.11 cm**-1
  50:      1104.43 cm**-1
  51:      1123.50 cm**-1
  52:      1142.92 cm**-1
  53:      1164.31 cm**-1
  54:      1173.16 cm**-1
  55:      1187.33 cm**-1
  56:      1219.55 cm**-1
  57:      1265.40 cm**-1
  58:      1283.43 cm**-1
  59:      1296.18 cm**-1
  60:      1322.81 cm**-1
  61:      1333.63 cm**-1
  62:      1362.85 cm**-1
  63:      1370.30 cm**-1
  64:      1375.89 cm**-1
  65:      1400.09 cm**-1
  66:      1407.55 cm**-1
  67:      1415.78 cm**-1
  68:      1441.59 cm**-1
  69:      1444.14 cm**-1
  70:      1455.48 cm**-1
  71:      1473.19 cm**-1
  72:      1476.70 cm**-1
  73:      1482.97 cm**-1
  74:      1490.57 cm**-1
  75:      1492.50 cm**-1
  76:      1499.85 cm**-1
  77:      1501.34 cm**-1
  78:      1510.35 cm**-1
  79:      1510.88 cm**-1
  80:      1511.97 cm**-1
  81:      1516.16 cm**-1
  82:      1522.28 cm**-1
  83:      1534.68 cm**-1
  84:      1547.79 cm**-1
  85:      1646.38 cm**-1
  86:      1659.07 cm**-1
  87:      1666.14 cm**-1
  88:      1693.53 cm**-1
  89:      3044.06 cm**-1
  90:      3053.32 cm**-1
  91:      3056.66 cm**-1
  92:      3060.45 cm**-1
  93:      3061.35 cm**-1
  94:      3078.74 cm**-1
  95:      3089.83 cm**-1
  96:      3092.36 cm**-1
  97:      3099.70 cm**-1
  98:      3115.89 cm**-1
  99:      3117.78 cm**-1
 100:      3125.25 cm**-1
 101:      3128.29 cm**-1
 102:      3132.80 cm**-1
 103:      3146.07 cm**-1
 104:      3162.19 cm**-1
 105:      3166.52 cm**-1
 106:      3178.75 cm**-1
 107:      3185.10 cm**-1
 108:      3239.29 cm**-1
 109:      3462.27 cm**-1
 110:      3515.64 cm**-1

IR SPECTRUM
-----------

 Mode   freq       eps      Int      T**2         TX        TY        TZ
       cm**-1   L/(mol*cm) km/mol    a.u.
----------------------------------------------------------------------------
  7:     31.15   0.002295   11.60  0.022994  (-0.026671 -0.112044 -0.098637)
  8:     49.20   0.004223   21.34  0.026783  ( 0.040578  0.125407 -0.097004)
  9:     68.33   0.001352    6.83  0.006175  (-0.035905 -0.005285 -0.069701)
 10:     74.26   0.000074    0.37  0.000310  ( 0.007774  0.004587  0.015117)
 11:     85.58   0.000838    4.24  0.003056  ( 0.026006 -0.008476  0.048038)
 12:    102.92   0.002360   11.93  0.007155  ( 0.060717  0.052911  0.025864)
 13:    118.66   0.000707    3.57  0.001858  (-0.017144 -0.002982 -0.039442)
 14:    127.93   0.000246    1.24  0.000601  ( 0.013670  0.018696  0.008024)
 15:    149.15   0.002246   11.35  0.004698  ( 0.067976 -0.000766 -0.008774)
 16:    155.93   0.000375    1.89  0.000750  ( 0.019521  0.015078 -0.011884)
 17:    185.89   0.013054   65.97  0.021914  ( 0.129200  0.034467 -0.063510)
 18:    207.97   0.002060   10.41  0.003091  (-0.051923 -0.001256 -0.019832)
 19:    256.59   0.000547    2.77  0.000666  (-0.020953 -0.014281  0.004768)
 20:    267.20   0.003294   16.65  0.003848  (-0.046155  0.013326 -0.039239)
 21:    284.57   0.000838    4.23  0.000919  ( 0.014447  0.026643 -0.000075)
 22:    300.38   0.003267   16.51  0.003394  (-0.040754 -0.009881  0.040440)
 23:    320.94   0.001868    9.44  0.001816  ( 0.007950 -0.011609  0.040225)
 24:    340.80   0.000319    1.61  0.000292  (-0.015575 -0.006171  0.003419)
 25:    366.52   0.000961    4.86  0.000818  (-0.024668  0.008798 -0.011511)
 26:    404.49   0.002107   10.65  0.001625  (-0.024012  0.008494 -0.031249)
 27:    409.99   0.006979   35.27  0.005312  ( 0.041275 -0.057763 -0.016488)
 28:    457.76   0.001653    8.36  0.001127  ( 0.024058  0.022865 -0.005052)
 29:    483.05   0.003012   15.22  0.001946  ( 0.039192  0.016864 -0.011205)
 30:    505.89   0.007393   37.36  0.004560  (-0.037822  0.014787 -0.053956)
 31:    593.51   0.005667   28.64  0.002980  ( 0.046480 -0.011093 -0.026384)
 32:    603.99   0.000123    0.62  0.000064  (-0.007369 -0.002655 -0.001481)
 33:    622.16   0.001823    9.21  0.000914  ( 0.010120  0.028123  0.004574)
 34:    656.91   0.002708   13.68  0.001286  (-0.030025  0.009735 -0.017030)
 35:    732.40   0.003497   17.67  0.001490  (-0.026796 -0.011868  0.025121)
 36:    771.90   0.006611   33.41  0.002673  ( 0.050460  0.003888 -0.010552)
 37:    829.48   0.007426   37.53  0.002794  (-0.033459 -0.026645  0.031051)
 38:    863.12   0.003143   15.89  0.001137  (-0.031041 -0.004105 -0.012495)
 39:    880.96   0.001773    8.96  0.000628  (-0.017154 -0.001455 -0.018216)
 40:    923.13   0.001764    8.92  0.000596  (-0.011482 -0.015571 -0.014903)
 41:    954.00   0.009899   50.02  0.003238  (-0.048733 -0.027938  0.009088)
 42:    970.84   0.005034   25.44  0.001618  (-0.037847 -0.000307  0.013625)
 43:   1002.10   0.003195   16.14  0.000995  ( 0.008945 -0.023466 -0.019085)
 44:   1010.82   0.007797   39.40  0.002407  (-0.020376  0.018337  0.040689)
 45:   1023.66   0.003352   16.94  0.001022  ( 0.001306 -0.022605  0.022563)
 46:   1037.84   0.002754   13.92  0.000828  ( 0.014936  0.024201 -0.004387)
 47:   1062.46   0.002284   11.54  0.000671  (-0.013406 -0.021123  0.006704)
 48:   1083.55   0.008770   44.32  0.002526  (-0.039661 -0.030602 -0.004022)
 49:   1084.11   0.000792    4.00  0.000228  ( 0.005648  0.006002  0.012647)
 50:   1104.43   0.003312   16.74  0.000936  ( 0.023926  0.010882  0.015651)
 51:   1123.50   0.003110   15.72  0.000864  ( 0.026816 -0.011179  0.004454)
 52:   1142.92   0.011004   55.61  0.003005  ( 0.051361 -0.018782 -0.003722)
 53:   1164.31   0.005089   25.72  0.001364  ( 0.031770 -0.014859  0.011566)
 54:   1173.16   0.018691   94.45  0.004972  ( 0.056508 -0.031733  0.027778)
 55:   1187.33   0.010740   54.28  0.002823  ( 0.036686 -0.036728 -0.011313)
 56:   1219.55   0.000428    2.16  0.000109  (-0.006637  0.005547  0.005884)
 57:   1265.40   0.004385   22.16  0.001081  (-0.019509 -0.011841  0.023674)
 58:   1283.43   0.007624   38.53  0.001854  ( 0.029255 -0.031587  0.000301)
 59:   1296.18   0.004835   24.43  0.001164  (-0.021616  0.002132  0.026310)
 60:   1322.81   0.007830   39.57  0.001847  ( 0.006022 -0.005470  0.042203)
 61:   1333.63   0.002658   13.43  0.000622  ( 0.011272  0.011547  0.019017)
 62:   1362.85   0.004308   21.77  0.000986  ( 0.022374  0.002173  0.021934)
 63:   1370.30   0.014425   72.90  0.003285  ( 0.012281  0.003511 -0.055874)
 64:   1375.89   0.011272   56.97  0.002557  (-0.026245 -0.002799 -0.043128)
 65:   1400.09   0.015824   79.97  0.003527  ( 0.046744 -0.021731 -0.029492)
 66:   1407.55   0.003093   15.63  0.000686  ( 0.023070 -0.012370  0.000645)
 67:   1415.78   0.008099   40.93  0.001785  ( 0.004029  0.006227 -0.041596)
 68:   1441.59   0.004429   22.38  0.000959  (-0.020060  0.020894  0.010941)
 69:   1444.14   0.019955  100.84  0.004312  (-0.057320 -0.001443  0.032007)
 70:   1455.48   0.016710   84.44  0.003583  (-0.036284  0.012157  0.046025)
 71:   1473.19   0.013566   68.56  0.002874  (-0.015212  0.013863 -0.049499)
 72:   1476.70   0.007111   35.93  0.001503  (-0.032942  0.019308  0.006683)
 73:   1482.97   0.017731   89.60  0.003731  (-0.016718 -0.058700 -0.002443)
 74:   1490.57   0.002241   11.33  0.000469  ( 0.004512 -0.020935 -0.003260)
 75:   1492.50   0.017602   88.95  0.003680  (-0.000613  0.006019 -0.060364)
 76:   1499.85   0.004035   20.39  0.000839  ( 0.002323  0.028854 -0.001246)
 77:   1501.34   0.001752    8.85  0.000364  (-0.013056 -0.006828 -0.012124)
 78:   1510.35   0.005975   30.20  0.001235  ( 0.013819  0.029423 -0.013337)
 79:   1510.88   0.002911   14.71  0.000601  (-0.018631  0.011440 -0.011099)
 80:   1511.97   0.001661    8.39  0.000343  (-0.003130 -0.005982  0.017241)
 81:   1516.16   0.016178   81.76  0.003330  (-0.023424 -0.052726 -0.001061)
 82:   1522.28   0.032818  165.85  0.006728  ( 0.019876  0.067256 -0.042536)
 83:   1534.68   0.013773   69.60  0.002801  (-0.033265 -0.007307 -0.040506)
 84:   1547.79   0.018355   92.76  0.003701  (-0.050129  0.034208  0.004184)
 85:   1646.38   0.108172  546.65  0.020503  ( 0.141362  0.002959 -0.022618)
 86:   1659.07   0.122568  619.41  0.023054  ( 0.095702 -0.067791 -0.096436)
 87:   1666.14   0.081901  413.89  0.015340  (-0.112308 -0.048011 -0.020537)
 88:   1693.53   0.021463  108.47  0.003955  (-0.047877  0.002180  0.040720)
 89:   3044.06   0.012398   62.65  0.001271  ( 0.013091 -0.028125 -0.017567)
 90:   3053.32   0.007487   37.83  0.000765  (-0.014443  0.017278 -0.016064)
 91:   3056.66   0.003467   17.52  0.000354  ( 0.010013  0.003145 -0.015613)
 92:   3060.45   0.008654   43.73  0.000882  ( 0.026841  0.012726  0.000047)
 93:   3061.35   0.001055    5.33  0.000108  (-0.005687  0.008109 -0.003077)
 94:   3078.74   0.004615   23.32  0.000468  (-0.000206 -0.020897  0.005572)
 95:   3089.83   0.006466   32.68  0.000653  ( 0.011632  0.016374  0.015799)
 96:   3092.36   0.011138   56.29  0.001124  ( 0.019830 -0.019323 -0.018905)
 97:   3099.70   0.004847   24.50  0.000488  ( 0.014238  0.010948  0.012863)
 98:   3115.89   0.007728   39.05  0.000774  (-0.011128  0.008159 -0.024157)
 99:   3117.78   0.007998   40.42  0.000801  ( 0.024720 -0.001321  0.013702)
100:   3125.25   0.008623   43.58  0.000861  (-0.013817  0.008516 -0.024446)
101:   3128.29   0.003186   16.10  0.000318  (-0.001999 -0.000788  0.017697)
102:   3132.80   0.002607   13.18  0.000260  ( 0.011976  0.006172  0.008843)
103:   3146.07   0.003838   19.40  0.000381  ( 0.017020  0.009176 -0.002608)
104:   3162.19   0.002878   14.54  0.000284  ( 0.008401 -0.014602 -0.000425)
105:   3166.52   0.002251   11.37  0.000222  (-0.007772  0.002183  0.012516)
106:   3178.75   0.003685   18.62  0.000362  (-0.017462 -0.001151  0.007447)
107:   3185.10   0.001300    6.57  0.000127  ( 0.008835  0.006515 -0.002627)
108:   3239.29   0.165394  835.83  0.015934  (-0.126027 -0.004924  0.005148)
109:   3462.27   0.034411  173.90  0.003102  ( 0.044687  0.032464 -0.007121)
110:   3515.64   0.024350  123.05  0.002161  (-0.004044  0.014003  0.044147)

--------------------------
THERMOCHEMISTRY AT 298.15K
--------------------------

Temperature         ... 298.15 K
Pressure            ... 1.00 atm
Total Mass          ... 216.31 AMU

Throughout the following assumptions are being made:
  (1) The electronic state is orbitally nondegenerate
  (2) There are no thermally accessible electronically excited states
  (3) Hindered rotations indicated by low frequency modes are not
      treated as such but are treated as vibrations and this may
      cause some error
  (4) All equations used are the standard statistical mechanics
      equations for an ideal gas
  (5) All vibrations are strictly harmonic

freq.      31.15  E(vib)   ...       0.55
freq.      49.20  E(vib)   ...       0.52
freq.      68.33  E(vib)   ...       0.50
freq.      74.26  E(vib)   ...       0.49
freq.      85.58  E(vib)   ...       0.48
freq.     102.92  E(vib)   ...       0.46
freq.     118.66  E(vib)   ...       0.44
freq.     127.93  E(vib)   ...       0.43
freq.     149.15  E(vib)   ...       0.40
freq.     155.93  E(vib)   ...       0.40
freq.     185.89  E(vib)   ...       0.37
freq.     207.97  E(vib)   ...       0.34
freq.     256.59  E(vib)   ...       0.30
freq.     267.20  E(vib)   ...       0.29
freq.     284.57  E(vib)   ...       0.28
freq.     300.38  E(vib)   ...       0.26
freq.     320.94  E(vib)   ...       0.25
freq.     340.80  E(vib)   ...       0.23
freq.     366.52  E(vib)   ...       0.22
freq.     404.49  E(vib)   ...       0.19
freq.     409.99  E(vib)   ...       0.19
freq.     457.76  E(vib)   ...       0.16
freq.     483.05  E(vib)   ...       0.15
freq.     505.89  E(vib)   ...       0.14
freq.     593.51  E(vib)   ...       0.10
freq.     603.99  E(vib)   ...       0.10
freq.     622.16  E(vib)   ...       0.09
freq.     656.91  E(vib)   ...       0.08
freq.     732.40  E(vib)   ...       0.06
freq.     771.90  E(vib)   ...       0.05
freq.     829.48  E(vib)   ...       0.04
freq.     863.12  E(vib)   ...       0.04
freq.     880.96  E(vib)   ...       0.04
freq.     923.13  E(vib)   ...       0.03
freq.     954.00  E(vib)   ...       0.03
freq.     970.84  E(vib)   ...       0.03
freq.    1002.10  E(vib)   ...       0.02
freq.    1010.82  E(vib)   ...       0.02
freq.    1023.66  E(vib)   ...       0.02
freq.    1037.84  E(vib)   ...       0.02
freq.    1062.46  E(vib)   ...       0.02
freq.    1083.55  E(vib)   ...       0.02
freq.    1084.11  E(vib)   ...       0.02
freq.    1104.43  E(vib)   ...       0.02
freq.    1123.50  E(vib)   ...       0.01
freq.    1142.92  E(vib)   ...       0.01
freq.    1164.31  E(vib)   ...       0.01
freq.    1173.16  E(vib)   ...       0.01
freq.    1187.33  E(vib)   ...       0.01
freq.    1219.55  E(vib)   ...       0.01
freq.    1265.40  E(vib)   ...       0.01
freq.    1283.43  E(vib)   ...       0.01
freq.    1296.18  E(vib)   ...       0.01
freq.    1322.81  E(vib)   ...       0.01
freq.    1333.63  E(vib)   ...       0.01
freq.    1362.85  E(vib)   ...       0.01
freq.    1370.30  E(vib)   ...       0.01
freq.    1375.89  E(vib)   ...       0.01
freq.    1400.09  E(vib)   ...       0.00
freq.    1407.55  E(vib)   ...       0.00
freq.    1415.78  E(vib)   ...       0.00
freq.    1441.59  E(vib)   ...       0.00
freq.    1444.14  E(vib)   ...       0.00
freq.    1455.48  E(vib)   ...       0.00
freq.    1473.19  E(vib)   ...       0.00
freq.    1476.70  E(vib)   ...       0.00
freq.    1482.97  E(vib)   ...       0.00
freq.    1490.57  E(vib)   ...       0.00
freq.    1492.50  E(vib)   ...       0.00
freq.    1499.85  E(vib)   ...       0.00
freq.    1501.34  E(vib)   ...       0.00
freq.    1510.35  E(vib)   ...       0.00
freq.    1510.88  E(vib)   ...       0.00
freq.    1511.97  E(vib)   ...       0.00
freq.    1516.16  E(vib)   ...       0.00
freq.    1522.28  E(vib)   ...       0.00
freq.    1534.68  E(vib)   ...       0.00
freq.    1547.79  E(vib)   ...       0.00
freq.    1646.38  E(vib)   ...       0.00
freq.    1659.07  E(vib)   ...       0.00
freq.    1666.14  E(vib)   ...       0.00
freq.    1693.53  E(vib)   ...       0.00
freq.    3044.06  E(vib)   ...       0.00
freq.    3053.32  E(vib)   ...       0.00
freq.    3056.66  E(vib)   ...       0.00
freq.    3060.45  E(vib)   ...       0.00
freq.    3061.35  E(vib)   ...       0.00
freq.    3078.74  E(vib)   ...       0.00
freq.    3089.83  E(vib)   ...       0.00
freq.    3092.36  E(vib)   ...       0.00
freq.    3099.70  E(vib)   ...       0.00
freq.    3115.89  E(vib)   ...       0.00
freq.    3117.78  E(vib)   ...       0.00
freq.    3125.25  E(vib)   ...       0.00
freq.    3128.29  E(vib)   ...       0.00
freq.    3132.80  E(vib)   ...       0.00
freq.    3146.07  E(vib)   ...       0.00
freq.    3162.19  E(vib)   ...       0.00
freq.    3166.52  E(vib)   ...       0.00
freq.    3178.75  E(vib)   ...       0.00
freq.    3185.10  E(vib)   ...       0.00
freq.    3239.29  E(vib)   ...       0.00
freq.    3462.27  E(vib)   ...       0.00
freq.    3515.64  E(vib)   ...       0.00

------------
INNER ENERGY
------------

The inner energy is: U= E(el) + E(ZPE) + E(vib) + E(rot) + E(trans)
    E(el)   - is the total energy from the electronic structure calculation
              = E(kin-el) + E(nuc-el) + E(el-el) + E(nuc-nuc)
    E(ZPE)  - the the zero temperature vibrational energy from the frequency calculation
    E(vib)  - the the finite temperature correction to E(ZPE) due to population
              of excited vibrational states
    E(rot)  - is the rotational thermal energy
    E(trans)- is the translational thermal energy

Summary of contributions to the inner energy U:
Electronic energy                ...   -708.55767096 Eh
Zero point energy                ...      0.33443737 Eh     209.86 kcal/mol
Thermal vibrational correction   ...      0.01447600 Eh       9.08 kcal/mol
Thermal rotational correction    ...      0.00141627 Eh       0.89 kcal/mol
Thermal translational correction ...      0.00141627 Eh       0.89 kcal/mol
-----------------------------------------------------------------------
Total thermal energy                   -708.20592505 Eh

Summary of corrections to the electronic energy:
(perhaps to be used in another calculation)
Total thermal correction                  0.01730854 Eh      10.86 kcal/mol
Non-thermal (ZPE) correction              0.33443737 Eh     209.86 kcal/mol
-----------------------------------------------------------------------
Total correction                          0.35174591 Eh     220.72 kcal/mol

--------
ENTHALPY
--------

The enthalpy is H = U + kB*T
                kB is Boltzmann's constant
Total free energy                 ...   -708.20592505 Eh
Thermal Enthalpy correction       ...      0.00094421 Eh       0.59 kcal/mol

Rotational constants in cm-1:     0.024840     0.014741     0.011446

                             ****ORCA TERMINATED NORMALLY****
TOTAL RUN TIME: 0 days 1 hours 2 minutes 49 seconds 239 msec
