                         Program Version 5.0.4 -  RELEASE  -
|  1> ! OPT FREQ B3LYP 6-31G(d) D4 AUTOAUX CPCM(water)
|  2>
|  3> %PAL NPROCS 4 END
|  4>
|  5> %maxcore 3375
|  6>
|  7> *xyzfile 0 1 /users/fjb15167/WWenergy/structures/Nwe.xyz
|  8>
|  9>                          ****END OF INPUT****
 Total Charge           Charge          ....    0
 Multiplicity           Mult            ....    1
 Number of Electrons    NEL             ....  154
Dispersion correction           -0.084192995
FINAL SINGLE POINT ENERGY      -936.598711939245
Dispersion correction            ... Starting D4
Dispersion correction           -0.083256884
FINAL SINGLE POINT ENERGY      -936.599411322164
Dispersion correction            ... Starting D4
Dispersion correction           -0.083767039
FINAL SINGLE POINT ENERGY      -936.599739407714
Dispersion correction            ... Starting D4
FINAL SINGLE POINT ENERGY      -936.599828426287
FINAL SINGLE POINT ENERGY      -936.599922839628
FINAL SINGLE POINT ENERGY      -936.600057734550
FINAL SINGLE POINT ENERGY      -936.600271065452
FINAL SINGLE POINT ENERGY      -936.600420122328
FINAL SINGLE POINT ENERGY      -936.600209956846
FINAL SINGLE POINT ENERGY      -936.600575682221
FINAL SINGLE POINT ENERGY      -936.600631858511
FINAL SINGLE POINT ENERGY      -936.600677414339
FINAL SINGLE POINT ENERGY      -936.600684011362
Dispersion correction           -0.083840089
FINAL SINGLE POINT ENERGY      -936.600689899137
Dispersion correction            ... Starting D4
Dispersion correction           -0.083865305
FINAL SINGLE POINT ENERGY      -936.600691763948
Dispersion correction            ... Starting D4
                    ***********************HURRAY********************

CARTESIAN COORDINATES (ANGSTROEM)
---------------------------------
  C     -1.464837   -0.742850    0.168550
  C     -1.898467   -2.011796   -0.135909
  C     -2.640076    0.091598    0.188734
  H     -1.327488   -2.924044   -0.247946
  N     -3.268958   -2.019007   -0.301828
  C     -3.754508   -0.744274   -0.109694
  C     -2.861681    1.459032    0.433523
  H     -3.825901   -2.834255   -0.515679
  C     -5.063077   -0.251020   -0.170487
  C     -4.159926    1.953449    0.373496
  H     -2.030370    2.119407    0.666642
  H     -5.899616   -0.905441   -0.400715
  C     -5.249590    1.106441    0.072898
  H     -4.342947    3.008708    0.559683
  H     -6.252971    1.522282    0.031192
  C     -0.046439   -0.302547    0.368738
  H      0.048302    0.304402    1.278672
  H      0.595548   -1.177968    0.503661
  C      0.452525    0.524483   -0.835729
  H      0.417092   -0.097539   -1.735571
  H     -0.219449    1.367718   -1.007472
  N      1.827162    1.016725   -0.697333
  C      2.883763    0.192200   -1.279869
  H      2.701879    0.071305   -2.352362
  H      3.829431    0.716356   -1.140519
  C      2.148892    2.227420   -0.148880
  C      2.911784   -1.229418   -0.705524
  N      3.327590   -1.400097    0.577282
  C      1.008959    3.089474    0.363372
  H      0.370124    3.427092   -0.461113
  H      0.375566    2.554076    1.077260
  H      1.443008    3.962673    0.853033
  C      3.227628   -2.722785    1.185082
  H      2.383683   -2.759703    1.887675
  H      3.076594   -3.463789    0.401721
  H      4.148447   -2.943890    1.735393
  C      3.676003   -0.321775    1.495360
  H      2.847219   -0.116435    2.186663
  H      4.546870   -0.628846    2.084779
  H      3.923410    0.596721    0.966109
  O      3.321578    2.617400   -0.069459
  O      2.541245   -2.171483   -1.419429

 Multiplicity           Mult            ....    1
 Number of Electrons    NEL             ....  154
 Basis Dimension        Dim             ....  336

ORBITAL ENERGIES
----------------

  NO   OCC          E(Eh)            E(eV)
   0   2.0000     -19.109123      -519.9857
   1   2.0000     -19.107223      -519.9340
   2   2.0000     -14.361024      -390.7833
   3   2.0000     -14.360136      -390.7592
   4   2.0000     -14.358982      -390.7278
   5   2.0000     -10.283150      -279.8187
   6   2.0000     -10.279351      -279.7154
   7   2.0000     -10.210600      -277.8445
   8   2.0000     -10.209253      -277.8079
   9   2.0000     -10.206281      -277.7270
  10   2.0000     -10.202464      -277.6232
  11   2.0000     -10.198398      -277.5125
  12   2.0000     -10.195574      -277.4357
  13   2.0000     -10.176452      -276.9153
  14   2.0000     -10.175715      -276.8953
  15   2.0000     -10.173058      -276.8230
  16   2.0000     -10.172703      -276.8133
  17   2.0000     -10.171964      -276.7932
  18   2.0000     -10.171411      -276.7782
  19   2.0000     -10.168437      -276.6972
  20   2.0000     -10.168241      -276.6919
  21   2.0000      -1.032011       -28.0824
  22   2.0000      -1.025220       -27.8977
  23   2.0000      -0.968196       -26.3460
  24   2.0000      -0.933763       -25.4090
  25   2.0000      -0.925847       -25.1936
  26   2.0000      -0.830552       -22.6005
  27   2.0000      -0.797279       -21.6951
  28   2.0000      -0.759540       -20.6681
  29   2.0000      -0.742908       -20.2156
  30   2.0000      -0.725724       -19.7479
  31   2.0000      -0.717762       -19.5313
  32   2.0000      -0.708074       -19.2677
  33   2.0000      -0.702743       -19.1226
  34   2.0000      -0.670690       -18.2504
  35   2.0000      -0.644328       -17.5331
  36   2.0000      -0.612403       -16.6643
  37   2.0000      -0.582827       -15.8595
  38   2.0000      -0.552536       -15.0353
  39   2.0000      -0.549117       -14.9422
  40   2.0000      -0.535003       -14.5582
  41   2.0000      -0.525747       -14.3063
  42   2.0000      -0.510028       -13.8786
  43   2.0000      -0.485531       -13.2120
  44   2.0000      -0.476537       -12.9672
  45   2.0000      -0.474340       -12.9074
  46   2.0000      -0.464517       -12.6401
  47   2.0000      -0.461256       -12.5514
  48   2.0000      -0.454003       -12.3541
  49   2.0000      -0.445721       -12.1287
  50   2.0000      -0.438502       -11.9322
  51   2.0000      -0.421375       -11.4662
  52   2.0000      -0.416544       -11.3347
  53   2.0000      -0.415056       -11.2943
  54   2.0000      -0.409645       -11.1470
  55   2.0000      -0.402472       -10.9518
  56   2.0000      -0.401068       -10.9136
  57   2.0000      -0.395532       -10.7630
  58   2.0000      -0.393306       -10.7024
  59   2.0000      -0.389456       -10.5976
  60   2.0000      -0.382979       -10.4214
  61   2.0000      -0.378157       -10.2902
  62   2.0000      -0.373145       -10.1538
  63   2.0000      -0.372204       -10.1282
  64   2.0000      -0.359809        -9.7909
  65   2.0000      -0.353595        -9.6218
  66   2.0000      -0.346612        -9.4318
  67   2.0000      -0.339485        -9.2379
  68   2.0000      -0.327597        -8.9144
  69   2.0000      -0.320467        -8.7204
  70   2.0000      -0.268742        -7.3128
  71   2.0000      -0.257977        -7.0199
  72   2.0000      -0.251972        -6.8565
  73   2.0000      -0.237070        -6.4510
  74   2.0000      -0.236346        -6.4313
  75   2.0000      -0.216773        -5.8987
  76   2.0000      -0.194920        -5.3040
  77   0.0000      -0.004891        -0.1331
  78   0.0000       0.016374         0.4456
  79   0.0000       0.028778         0.7831
  80   0.0000       0.031135         0.8472
  81   0.0000       0.068538         1.8650

MULLIKEN ATOMIC CHARGES
-----------------------
   0 C :    0.052061
   1 C :   -0.034720
   2 C :    0.058738
   3 H :    0.177927
   4 N :   -0.633226
   5 C :    0.266916
   6 C :   -0.233056
   7 H :    0.370739
   8 C :   -0.189527
   9 C :   -0.171323
  10 H :    0.150404
  11 H :    0.152247
  12 C :   -0.177447
  13 H :    0.136894
  14 H :    0.140697
  15 C :   -0.363449
  16 H :    0.161343
  17 H :    0.170554
  18 C :   -0.167871
  19 H :    0.172308
  20 H :    0.181961
  21 N :   -0.367436
  22 C :   -0.251507
  23 H :    0.180593
  24 H :    0.205616
  25 C :    0.530319
  26 C :    0.521152
  27 N :   -0.359809
  28 C :   -0.570259
  29 H :    0.199183
  30 H :    0.201688
  31 H :    0.181105
  32 C :   -0.331205
  33 H :    0.172654
  34 H :    0.184402
  35 H :    0.173416
  36 C :   -0.345524
  37 H :    0.172635
  38 H :    0.174080
  39 H :    0.193634
  40 O :   -0.539300
  41 O :   -0.547606
Sum of atomic charges:    0.0000000

LOEWDIN ATOMIC CHARGES
----------------------
   0 C :   -0.087569
   1 C :   -0.104796
   2 C :   -0.051856
   3 H :    0.149872
   4 N :   -0.130155
   5 C :    0.006917
   6 C :   -0.150704
   7 H :    0.282980
   8 C :   -0.163623
   9 C :   -0.165086
  10 H :    0.138394
  11 H :    0.142862
  12 C :   -0.153864
  13 H :    0.134429
  14 H :    0.136295
  15 C :   -0.236599
  16 H :    0.133346
  17 H :    0.140145
  18 C :   -0.158019
  19 H :    0.139901
  20 H :    0.142431
  21 N :   -0.068391
  22 C :   -0.178669
  23 H :    0.145043
  24 H :    0.160270
  25 C :    0.115279
  26 C :    0.094001
  27 N :   -0.069042
  28 C :   -0.393547
  29 H :    0.158520
  30 H :    0.153778
  31 H :    0.150183
  32 C :   -0.280017
  33 H :    0.132761
  34 H :    0.146971
  35 H :    0.137260
  36 C :   -0.284944
  37 H :    0.132416
  38 H :    0.137755
  39 H :    0.148210
  40 O :   -0.340645
  41 O :   -0.342493

  Mayer bond orders larger than 0.100000
B(  0-C ,  1-C ) :   1.5538 B(  0-C ,  2-C ) :   1.2566 B(  0-C , 15-C ) :   0.9985
B(  1-C ,  3-H ) :   0.9217 B(  1-C ,  4-N ) :   1.0941 B(  2-C ,  5-C ) :   1.2816
B(  2-C ,  6-C ) :   1.3529 B(  4-N ,  5-C ) :   1.0289 B(  4-N ,  7-H ) :   0.8163
B(  5-C ,  8-C ) :   1.3578 B(  6-C ,  9-C ) :   1.4773 B(  6-C , 10-H ) :   0.9133
B(  8-C , 11-H ) :   0.9195 B(  8-C , 12-C ) :   1.4751 B(  9-C , 12-C ) :   1.3755
B(  9-C , 13-H ) :   0.9302 B( 12-C , 14-H ) :   0.9289 B( 15-C , 16-H ) :   0.9189
B( 15-C , 17-H ) :   0.9211 B( 15-C , 18-C ) :   0.9735 B( 18-C , 19-H ) :   0.9238
B( 18-C , 20-H ) :   0.9200 B( 18-C , 21-N ) :   0.9213 B( 21-N , 22-C ) :   0.9535
B( 21-N , 25-C ) :   1.1681 B( 22-C , 23-H ) :   0.9160 B( 22-C , 24-H ) :   0.8926
B( 22-C , 26-C ) :   0.9390 B( 25-C , 28-C ) :   0.9929 B( 25-C , 40-O ) :   1.7420
B( 26-C , 27-N ) :   1.1984 B( 26-C , 41-O ) :   1.7471 B( 27-N , 32-C ) :   0.9475
B( 27-N , 36-C ) :   0.9501 B( 27-N , 41-O ) :   0.1012 B( 28-C , 29-H ) :   0.9194
B( 28-C , 30-H ) :   0.9130 B( 28-C , 31-H ) :   0.9380 B( 32-C , 33-H ) :   0.9337
B( 32-C , 34-H ) :   0.9261 B( 32-C , 35-H ) :   0.9368 B( 36-C , 37-H ) :   0.9296
B( 36-C , 38-H ) :   0.9343 B( 36-C , 39-H ) :   0.9043

Dispersion correction           -0.083870061
FINAL SINGLE POINT ENERGY      -936.600694348233

DIPOLE MOMENT
-------------
                                X             Y             Z
Electronic contribution:     -8.04026      -2.43427      -5.51774
Nuclear contribution   :      6.69016       1.46558       6.51158
                        -----------------------------------------
Total Dipole Moment    :     -1.35010      -0.96869       0.99384
                        -----------------------------------------
Magnitude (a.u.)       :      1.93620
Magnitude (Debye)      :      4.92142

Dispersion correction in the Hessian             ... Starting D4

VIBRATIONAL FREQUENCIES
-----------------------

Scaling factor for frequencies =  1.000000000  (already applied!)

   0:         0.00 cm**-1
   1:         0.00 cm**-1
   2:         0.00 cm**-1
   3:         0.00 cm**-1
   4:         0.00 cm**-1
   5:         0.00 cm**-1
   6:        22.06 cm**-1
   7:        36.36 cm**-1
   8:        41.56 cm**-1
   9:        63.32 cm**-1
  10:        70.61 cm**-1
  11:        76.20 cm**-1
  12:        89.15 cm**-1
  13:       106.91 cm**-1
  14:       116.14 cm**-1
  15:       134.00 cm**-1
  16:       169.12 cm**-1
  17:       180.62 cm**-1
  18:       190.72 cm**-1
  19:       221.90 cm**-1
  20:       228.94 cm**-1
  21:       238.67 cm**-1
  22:       255.72 cm**-1
  23:       276.10 cm**-1
  24:       344.48 cm**-1
  25:       350.69 cm**-1
  26:       377.78 cm**-1
  27:       390.94 cm**-1
  28:       428.98 cm**-1
  29:       434.63 cm**-1
  30:       446.14 cm**-1
  31:       460.70 cm**-1
  32:       472.26 cm**-1
  33:       498.52 cm**-1
  34:       550.69 cm**-1
  35:       576.00 cm**-1
  36:       587.75 cm**-1
  37:       592.19 cm**-1
  38:       601.80 cm**-1
  39:       627.38 cm**-1
  40:       650.68 cm**-1
  41:       702.15 cm**-1
  42:       750.42 cm**-1
  43:       756.82 cm**-1
  44:       760.41 cm**-1
  45:       767.20 cm**-1
  46:       780.82 cm**-1
  47:       790.42 cm**-1
  48:       816.72 cm**-1
  49:       847.13 cm**-1
  50:       863.43 cm**-1
  51:       890.03 cm**-1
  52:       930.87 cm**-1
  53:       960.18 cm**-1
  54:       970.60 cm**-1
  55:      1003.25 cm**-1
  56:      1010.72 cm**-1
  57:      1026.61 cm**-1
  58:      1034.39 cm**-1
  59:      1040.02 cm**-1
  60:      1062.72 cm**-1
  61:      1080.08 cm**-1
  62:      1090.08 cm**-1
  63:      1111.04 cm**-1
  64:      1113.41 cm**-1
  65:      1134.60 cm**-1
  66:      1152.60 cm**-1
  67:      1169.07 cm**-1
  68:      1179.53 cm**-1
  69:      1184.07 cm**-1
  70:      1218.89 cm**-1
  71:      1250.06 cm**-1
  72:      1259.56 cm**-1
  73:      1281.85 cm**-1
  74:      1287.07 cm**-1
  75:      1295.56 cm**-1
  76:      1321.93 cm**-1
  77:      1342.07 cm**-1
  78:      1347.48 cm**-1
  79:      1373.13 cm**-1
  80:      1387.59 cm**-1
  81:      1394.65 cm**-1
  82:      1409.22 cm**-1
  83:      1417.10 cm**-1
  84:      1441.18 cm**-1
  85:      1456.96 cm**-1
  86:      1464.90 cm**-1
  87:      1473.47 cm**-1
  88:      1484.42 cm**-1
  89:      1489.36 cm**-1
  90:      1497.38 cm**-1
  91:      1498.67 cm**-1
  92:      1504.34 cm**-1
  93:      1506.78 cm**-1
  94:      1510.63 cm**-1
  95:      1517.17 cm**-1
  96:      1529.78 cm**-1
  97:      1532.26 cm**-1
  98:      1536.13 cm**-1
  99:      1554.40 cm**-1
 100:      1602.80 cm**-1
 101:      1628.69 cm**-1
 102:      1674.85 cm**-1
 103:      1703.31 cm**-1
 104:      1710.42 cm**-1
 105:      3034.89 cm**-1
 106:      3039.54 cm**-1
 107:      3045.91 cm**-1
 108:      3064.92 cm**-1
 109:      3083.52 cm**-1
 110:      3087.93 cm**-1
 111:      3099.03 cm**-1
 112:      3102.91 cm**-1
 113:      3113.02 cm**-1
 114:      3131.48 cm**-1
 115:      3145.63 cm**-1
 116:      3164.29 cm**-1
 117:      3170.77 cm**-1
 118:      3182.68 cm**-1
 119:      3192.01 cm**-1
 120:      3192.89 cm**-1
 121:      3193.23 cm**-1
 122:      3202.63 cm**-1
 123:      3209.77 cm**-1
 124:      3270.50 cm**-1
 125:      3650.12 cm**-1

IR SPECTRUM
-----------

 Mode   freq       eps      Int      T**2         TX        TY        TZ
       cm**-1   L/(mol*cm) km/mol    a.u.
----------------------------------------------------------------------------
  6:     22.06   0.000342    1.73  0.004836  ( 0.022862 -0.032490  0.057077)
  7:     36.36   0.000025    0.12  0.000212  ( 0.013055  0.006108 -0.002129)
  8:     41.56   0.001124    5.68  0.008444  ( 0.082193  0.023446 -0.033746)
  9:     63.32   0.000328    1.66  0.001619  (-0.027765  0.000790  0.029107)
 10:     70.61   0.000090    0.45  0.000396  (-0.001978 -0.014144 -0.013868)
 11:     76.20   0.001614    8.15  0.006609  (-0.061194  0.046482  0.026525)
 12:     89.15   0.000046    0.23  0.000161  ( 0.002460 -0.010290 -0.007034)
 13:    106.91   0.000410    2.07  0.001196  (-0.001621  0.000010  0.034552)
 14:    116.14   0.002717   13.73  0.007302  (-0.013264  0.055082 -0.063968)
 15:    134.00   0.001712    8.65  0.003987  ( 0.036440 -0.046152  0.023014)
 16:    169.12   0.000074    0.37  0.000136  ( 0.002826 -0.008998 -0.006895)
 17:    180.62   0.000467    2.36  0.000807  (-0.006493  0.009902  0.025831)
 18:    190.72   0.000082    0.41  0.000134  (-0.000577 -0.001696  0.011424)
 19:    221.90   0.000400    2.02  0.000562  ( 0.002687  0.002590  0.023420)
 20:    228.94   0.001716    8.67  0.002339  ( 0.009449  0.011514 -0.046012)
 21:    238.67   0.000148    0.75  0.000193  (-0.001742 -0.013414 -0.003228)
 22:    255.72   0.002624   13.26  0.003202  (-0.050843  0.020195  0.014477)
 23:    276.10   0.001287    6.50  0.001455  ( 0.031189 -0.010759  0.019140)
 24:    344.48   0.004776   24.13  0.004326  ( 0.007046 -0.025845  0.060072)
 25:    350.69   0.000916    4.63  0.000815  ( 0.007393  0.021648  0.017072)
 26:    377.78   0.001746    8.82  0.001442  ( 0.000515 -0.014966 -0.034898)
 27:    390.94   0.000913    4.61  0.000729  (-0.001557  0.021447 -0.016324)
 28:    428.98   0.016453   83.15  0.011969  (-0.015616 -0.027876  0.104632)
 29:    434.63   0.002499   12.63  0.001794  ( 0.010766  0.002479 -0.040893)
 30:    446.14   0.011616   58.70  0.008125  ( 0.021740  0.018539 -0.085489)
 31:    460.70   0.004198   21.22  0.002844  ( 0.041491  0.019043  0.027564)
 32:    472.26   0.001275    6.44  0.000843  (-0.020046  0.014677 -0.015011)
 33:    498.52   0.004867   24.60  0.003047  (-0.041144  0.024403  0.027537)
 34:    550.69   0.001178    5.95  0.000667  ( 0.015613  0.020397  0.002736)
 35:    576.00   0.003774   19.07  0.002045  (-0.019175 -0.040380  0.006816)
 36:    587.75   0.001623    8.20  0.000862  ( 0.023908 -0.009347  0.014243)
 37:    592.19   0.002999   15.16  0.001581  (-0.004816  0.002809 -0.039363)
 38:    601.80   0.003245   16.40  0.001683  ( 0.005087  0.028282 -0.029274)
 39:    627.38   0.001065    5.38  0.000530  (-0.002911 -0.003275 -0.022593)
 40:    650.68   0.001830    9.25  0.000878  ( 0.000857  0.007622  0.028614)
 41:    702.15   0.000867    4.38  0.000385  ( 0.011653  0.003831  0.015330)
 42:    750.42   0.001302    6.58  0.000541  (-0.013232 -0.009113  0.016832)
 43:    756.82   0.016206   81.90  0.006682  ( 0.012258  0.012554 -0.079841)
 44:    760.41   0.003016   15.24  0.001238  (-0.019417  0.029280 -0.001861)
 45:    767.20   0.002775   14.03  0.001129  (-0.020066  0.012893 -0.023666)
 46:    780.82   0.003660   18.50  0.001463  (-0.017405  0.012905 -0.031517)
 47:    790.42   0.000408    2.06  0.000161  ( 0.008712  0.000532  0.009224)
 48:    816.72   0.001399    7.07  0.000534  (-0.018282 -0.005691  0.012953)
 49:    847.13   0.003712   18.76  0.001367  (-0.010356 -0.006551 -0.034889)
 50:    863.43   0.000064    0.32  0.000023  (-0.002632 -0.003907 -0.000942)
 51:    890.03   0.000165    0.84  0.000058  ( 0.006738  0.003536 -0.000352)
 52:    930.87   0.000541    2.74  0.000182  ( 0.002132  0.004016 -0.012682)
 53:    960.18   0.000567    2.87  0.000184  ( 0.008757  0.006264  0.008266)
 54:    970.60   0.000004    0.02  0.000001  (-0.000706 -0.000909  0.000167)
 55:   1003.25   0.006155   31.11  0.001915  (-0.017176  0.010981 -0.038717)
 56:   1010.72   0.007357   37.18  0.002272  ( 0.027256  0.036490 -0.014045)
 57:   1026.61   0.005480   27.70  0.001666  (-0.020597  0.023874  0.025917)
 58:   1034.39   0.002899   14.65  0.000875  ( 0.014737  0.022883 -0.011567)
 59:   1040.02   0.005161   26.08  0.001548  (-0.020652  0.033435  0.002007)
 60:   1062.72   0.001956    9.88  0.000574  ( 0.001098 -0.008772  0.022273)
 61:   1080.08   0.003776   19.08  0.001091  ( 0.022222  0.004930  0.023933)
 62:   1090.08   0.002386   12.06  0.000683  (-0.005663 -0.025516  0.000004)
 63:   1111.04   0.014268   72.10  0.004007  ( 0.024083  0.052168  0.026568)
 64:   1113.41   0.002975   15.03  0.000834  ( 0.002223  0.028120 -0.006171)
 65:   1134.60   0.000646    3.26  0.000178  ( 0.003235 -0.012808 -0.001744)
 66:   1152.60   0.000569    2.87  0.000154  ( 0.000836  0.007183 -0.010083)
 67:   1169.07   0.009677   48.91  0.002583  (-0.026813  0.011872 -0.041514)
 68:   1179.53   0.003414   17.25  0.000903  ( 0.020244 -0.000124  0.022210)
 69:   1184.07   0.000502    2.54  0.000132  ( 0.004774  0.002778  0.010085)
 70:   1218.89   0.011143   56.31  0.002853  (-0.002213  0.021674  0.048765)
 71:   1250.06   0.019690   99.51  0.004915  (-0.029709 -0.062025 -0.013629)
 72:   1259.56   0.004865   24.59  0.001205  ( 0.030612  0.015228  0.006037)
 73:   1281.85   0.011022   55.70  0.002683  (-0.028411  0.035585  0.024692)
 74:   1287.07   0.014188   71.70  0.003440  ( 0.002964 -0.051149  0.028549)
 75:   1295.56   0.018154   91.74  0.004373  (-0.014972  0.059642  0.024321)
 76:   1321.93   0.003224   16.29  0.000761  ( 0.006547  0.026798  0.000299)
 77:   1342.07   0.004081   20.63  0.000949  (-0.012201 -0.027946 -0.004380)
 78:   1347.48   0.000654    3.30  0.000151  (-0.001509 -0.008603 -0.008666)
 79:   1373.13   0.000336    1.70  0.000076  (-0.001711 -0.006052 -0.006062)
 80:   1387.59   0.011755   59.41  0.002644  ( 0.047549 -0.019523  0.001255)
 81:   1394.65   0.005116   25.85  0.001145  ( 0.004271  0.032743  0.007374)
 82:   1409.22   0.005246   26.51  0.001162  ( 0.031253  0.009838 -0.009386)
 83:   1417.10   0.005039   25.46  0.001110  ( 0.010887  0.029426  0.011190)
 84:   1441.18   0.015583   78.75  0.003374  (-0.016870  0.016703 -0.053016)
 85:   1456.96   0.016614   83.96  0.003559  (-0.014349  0.044104 -0.037517)
 86:   1464.90   0.009305   47.02  0.001982  ( 0.042941 -0.011107  0.003867)
 87:   1473.47   0.049037  247.81  0.010386  (-0.024849 -0.092463 -0.034909)
 88:   1484.42   0.004742   23.97  0.000997  ( 0.031487  0.002349 -0.000030)
 89:   1489.36   0.000642    3.25  0.000135  ( 0.004773  0.006198 -0.008568)
 90:   1497.38   0.008731   44.12  0.001820  (-0.007888  0.041831  0.002742)
 91:   1498.67   0.004803   24.27  0.001000  (-0.000222  0.028322  0.014070)
 92:   1504.34   0.005125   25.90  0.001063  (-0.009494  0.020726  0.023313)
 93:   1506.78   0.003462   17.50  0.000717  ( 0.012929 -0.021948  0.008259)
 94:   1510.63   0.000787    3.98  0.000163  (-0.001480 -0.012615 -0.001127)
 95:   1517.17   0.003065   15.49  0.000631  (-0.024355  0.004384 -0.004262)
 96:   1529.78   0.006134   31.00  0.001251  (-0.033776 -0.007913 -0.006913)
 97:   1532.26   0.006131   30.98  0.001249  ( 0.014724 -0.007752 -0.031173)
 98:   1536.13   0.001506    7.61  0.000306  ( 0.012268 -0.012240 -0.002370)
 99:   1554.40   0.017641   89.15  0.003542  (-0.007960  0.034298 -0.047978)
100:   1602.80   0.003095   15.64  0.000603  (-0.020383 -0.013554 -0.001862)
101:   1628.69   0.000200    1.01  0.000038  (-0.003205  0.005301 -0.000127)
102:   1674.85   0.001562    7.89  0.000291  (-0.001304  0.016908  0.001858)
103:   1703.31   0.172077  869.61  0.031526  ( 0.132155  0.096549  0.068845)
104:   1710.42   0.070984  358.73  0.012951  (-0.000049 -0.040639 -0.106299)
105:   3034.89   0.005026   25.40  0.000517  (-0.003739 -0.021588 -0.006062)
106:   3039.54   0.018654   94.27  0.001915  (-0.007427 -0.007302  0.042505)
107:   3045.91   0.010754   54.35  0.001102  ( 0.020452  0.009784  0.024244)
108:   3064.92   0.000755    3.81  0.000077  (-0.007306  0.003876  0.002905)
109:   3083.52   0.004040   20.41  0.000409  (-0.010865  0.007485  0.015322)
110:   3087.93   0.012641   63.88  0.001278  (-0.013121 -0.006921 -0.032519)
111:   3099.03   0.013637   68.92  0.001373  (-0.035243  0.009245 -0.006759)
112:   3102.91   0.004018   20.30  0.000404  (-0.019089  0.005629 -0.002827)
113:   3113.02   0.003860   19.51  0.000387  ( 0.011428 -0.016001 -0.000529)
114:   3131.48   0.001812    9.16  0.000181  (-0.002998 -0.001868  0.012964)
115:   3145.63   0.007516   37.98  0.000746  ( 0.013373 -0.023562 -0.003417)
116:   3164.29   0.001706    8.62  0.000168  (-0.005351  0.010322 -0.005746)
117:   3170.77   0.003396   17.16  0.000334  ( 0.011603  0.013207  0.005019)
118:   3182.68   0.000336    1.70  0.000033  ( 0.000543  0.005623  0.001017)
119:   3192.01   0.001207    6.10  0.000118  ( 0.004403 -0.009179 -0.003785)
120:   3192.89   0.002959   14.95  0.000289  (-0.010125  0.013622  0.001045)
121:   3193.23   0.000593    3.00  0.000058  (-0.005673 -0.004562 -0.002227)
122:   3202.63   0.010158   51.34  0.000990  (-0.023305 -0.019872 -0.007199)
123:   3209.77   0.006055   30.60  0.000589  (-0.015668  0.018369  0.002407)
124:   3270.50   0.000157    0.79  0.000015  ( 0.003192 -0.002155  0.000364)
125:   3650.12   0.035032  177.04  0.002995  (-0.023487 -0.048167 -0.011104)

--------------------------
THERMOCHEMISTRY AT 298.15K
--------------------------

Temperature         ... 298.15 K
Pressure            ... 1.00 atm
Total Mass          ... 287.36 AMU

Throughout the following assumptions are being made:
  (1) The electronic state is orbitally nondegenerate
  (2) There are no thermally accessible electronically excited states
  (3) Hindered rotations indicated by low frequency modes are not
      treated as such but are treated as vibrations and this may
      cause some error
  (4) All equations used are the standard statistical mechanics
      equations for an ideal gas
  (5) All vibrations are strictly harmonic

freq.      22.06  E(vib)   ...       0.56
freq.      36.36  E(vib)   ...       0.54
freq.      41.56  E(vib)   ...       0.54
freq.      63.32  E(vib)   ...       0.51
freq.      70.61  E(vib)   ...       0.50
freq.      76.20  E(vib)   ...       0.49
freq.      89.15  E(vib)   ...       0.47
freq.     106.91  E(vib)   ...       0.45
freq.     116.14  E(vib)   ...       0.44
freq.     134.00  E(vib)   ...       0.42
freq.     169.12  E(vib)   ...       0.38
freq.     180.62  E(vib)   ...       0.37
freq.     190.72  E(vib)   ...       0.36
freq.     221.90  E(vib)   ...       0.33
freq.     228.94  E(vib)   ...       0.32
freq.     238.67  E(vib)   ...       0.32
freq.     255.72  E(vib)   ...       0.30
freq.     276.10  E(vib)   ...       0.28
freq.     344.48  E(vib)   ...       0.23
freq.     350.69  E(vib)   ...       0.23
freq.     377.78  E(vib)   ...       0.21
freq.     390.94  E(vib)   ...       0.20
freq.     428.98  E(vib)   ...       0.18
freq.     434.63  E(vib)   ...       0.17
freq.     446.14  E(vib)   ...       0.17
freq.     460.70  E(vib)   ...       0.16
freq.     472.26  E(vib)   ...       0.15
freq.     498.52  E(vib)   ...       0.14
freq.     550.69  E(vib)   ...       0.12
freq.     576.00  E(vib)   ...       0.11
freq.     587.75  E(vib)   ...       0.10
freq.     592.19  E(vib)   ...       0.10
freq.     601.80  E(vib)   ...       0.10
freq.     627.38  E(vib)   ...       0.09
freq.     650.68  E(vib)   ...       0.08
freq.     702.15  E(vib)   ...       0.07
freq.     750.42  E(vib)   ...       0.06
freq.     756.82  E(vib)   ...       0.06
freq.     760.41  E(vib)   ...       0.06
freq.     767.20  E(vib)   ...       0.06
freq.     780.82  E(vib)   ...       0.05
freq.     790.42  E(vib)   ...       0.05
freq.     816.72  E(vib)   ...       0.05
freq.     847.13  E(vib)   ...       0.04
freq.     863.43  E(vib)   ...       0.04
freq.     890.03  E(vib)   ...       0.04
freq.     930.87  E(vib)   ...       0.03
freq.     960.18  E(vib)   ...       0.03
freq.     970.60  E(vib)   ...       0.03
freq.    1003.25  E(vib)   ...       0.02
freq.    1010.72  E(vib)   ...       0.02
freq.    1026.61  E(vib)   ...       0.02
freq.    1034.39  E(vib)   ...       0.02
freq.    1040.02  E(vib)   ...       0.02
freq.    1062.72  E(vib)   ...       0.02
freq.    1080.08  E(vib)   ...       0.02
freq.    1090.08  E(vib)   ...       0.02
freq.    1111.04  E(vib)   ...       0.01
freq.    1113.41  E(vib)   ...       0.01
freq.    1134.60  E(vib)   ...       0.01
freq.    1152.60  E(vib)   ...       0.01
freq.    1169.07  E(vib)   ...       0.01
freq.    1179.53  E(vib)   ...       0.01
freq.    1184.07  E(vib)   ...       0.01
freq.    1218.89  E(vib)   ...       0.01
freq.    1250.06  E(vib)   ...       0.01
freq.    1259.56  E(vib)   ...       0.01
freq.    1281.85  E(vib)   ...       0.01
freq.    1287.07  E(vib)   ...       0.01
freq.    1295.56  E(vib)   ...       0.01
freq.    1321.93  E(vib)   ...       0.01
freq.    1342.07  E(vib)   ...       0.01
freq.    1347.48  E(vib)   ...       0.01
freq.    1373.13  E(vib)   ...       0.01
freq.    1387.59  E(vib)   ...       0.00
freq.    1394.65  E(vib)   ...       0.00
freq.    1409.22  E(vib)   ...       0.00
freq.    1417.10  E(vib)   ...       0.00
freq.    1441.18  E(vib)   ...       0.00
freq.    1456.96  E(vib)   ...       0.00
freq.    1464.90  E(vib)   ...       0.00
freq.    1473.47  E(vib)   ...       0.00
freq.    1484.42  E(vib)   ...       0.00
freq.    1489.36  E(vib)   ...       0.00
freq.    1497.38  E(vib)   ...       0.00
freq.    1498.67  E(vib)   ...       0.00
freq.    1504.34  E(vib)   ...       0.00
freq.    1506.78  E(vib)   ...       0.00
freq.    1510.63  E(vib)   ...       0.00
freq.    1517.17  E(vib)   ...       0.00
freq.    1529.78  E(vib)   ...       0.00
freq.    1532.26  E(vib)   ...       0.00
freq.    1536.13  E(vib)   ...       0.00
freq.    1554.40  E(vib)   ...       0.00
freq.    1602.80  E(vib)   ...       0.00
freq.    1628.69  E(vib)   ...       0.00
freq.    1674.85  E(vib)   ...       0.00
freq.    1703.31  E(vib)   ...       0.00
freq.    1710.42  E(vib)   ...       0.00
freq.    3034.89  E(vib)   ...       0.00
freq.    3039.54  E(vib)   ...       0.00
freq.    3045.91  E(vib)   ...       0.00
freq.    3064.92  E(vib)   ...       0.00
freq.    3083.52  E(vib)   ...       0.00
freq.    3087.93  E(vib)   ...       0.00
freq.    3099.03  E(vib)   ...       0.00
freq.    3102.91  E(vib)   ...       0.00
freq.    3113.02  E(vib)   ...       0.00
freq.    3131.48  E(vib)   ...       0.00
freq.    3145.63  E(vib)   ...       0.00
freq.    3164.29  E(vib)   ...       0.00
freq.    3170.77  E(vib)   ...       0.00
freq.    3182.68  E(vib)   ...       0.00
freq.    3192.01  E(vib)   ...       0.00
freq.    3192.89  E(vib)   ...       0.00
freq.    3193.23  E(vib)   ...       0.00
freq.    3202.63  E(vib)   ...       0.00
freq.    3209.77  E(vib)   ...       0.00
freq.    3270.50  E(vib)   ...       0.00
freq.    3650.12  E(vib)   ...       0.00

------------
INNER ENERGY
------------

The inner energy is: U= E(el) + E(ZPE) + E(vib) + E(rot) + E(trans)
    E(el)   - is the total energy from the electronic structure calculation
              = E(kin-el) + E(nuc-el) + E(el-el) + E(nuc-nuc)
    E(ZPE)  - the the zero temperature vibrational energy from the frequency calculation
    E(vib)  - the the finite temperature correction to E(ZPE) due to population
              of excited vibrational states
    E(rot)  - is the rotational thermal energy
    E(trans)- is the translational thermal energy

Summary of contributions to the inner energy U:
Electronic energy                ...   -936.60069435 Eh
Zero point energy                ...      0.35578326 Eh     223.26 kcal/mol
Thermal vibrational correction   ...      0.01782520 Eh      11.19 kcal/mol
Thermal rotational correction    ...      0.00141627 Eh       0.89 kcal/mol
Thermal translational correction ...      0.00141627 Eh       0.89 kcal/mol
-----------------------------------------------------------------------
Total thermal energy                   -936.22425335 Eh

Rotational constants in cm-1:     0.017178     0.005929     0.004822

                             ****ORCA TERMINATED NORMALLY****
TOTAL RUN TIME: 0 days 1 hours 7 minutes 52 seconds 730 msec
