                         Program Version 5.0.4 -  RELEASE  -
|  1> ! OPT FREQ B3LYP 6-31G(d) D4 AUTOAUX
|  2> ! CPCM
|  3>
|  4> %cpcm
|  5> epsilon 9.8629
|  6> refrac  1.4295
|  7> end
|  8>
|  9> %PAL NPROCS 4 END
| 10>
| 11> %maxcore 3375
| 12>
| 13> *xyzfile 0 1 /users/fjb15167/WWenergy/structures/Na.xyz
| 14>
| 15>                          ****END OF INPUT****
 Total Charge           Charge          ....    0
 Multiplicity           Mult            ....    1
 Number of Electrons    NEL             ....   86
Dispersion correction           -0.039958276
FINAL SINGLE POINT ENERGY      -534.865876463609
Dispersion correction            ... Starting D4
Dispersion correction           -0.039653922
FINAL SINGLE POINT ENERGY      -534.866318422134
Dispersion correction            ... Starting D4
Dispersion correction           -0.039894684
FINAL SINGLE POINT ENERGY      -534.866480832861
Dispersion correction            ... Starting D4
FINAL SINGLE POINT ENERGY      -534.866543225868
FINAL SINGLE POINT ENERGY      -534.866583697614
FINAL SINGLE POINT ENERGY      -534.866602226078
Dispersion correction           -0.039953712
FINAL SINGLE POINT ENERGY      -534.866614733541
Dispersion correction            ... Starting D4
Dispersion correction           -0.039943301
FINAL SINGLE POINT ENERGY      -534.866619530510
Dispersion correction            ... Starting D4
                    ***********************HURRAY********************

CARTESIAN COORDINATES (ANGSTROEM)
---------------------------------
  C     -1.719861    0.615567   -0.442030
  H     -0.610513    2.287424    0.442673
  H     -1.540637    2.643615   -1.039000
  H     -0.012548    1.745488   -1.129193
  O     -2.734519    0.455447   -1.126890
  C     -0.919086    1.902639   -0.533253
  N      1.698941   -0.431064   -0.268022
  C      1.122666   -1.648221   -0.828584
  H      0.488870   -1.436430   -1.698540
  H      1.942128   -2.301774   -1.144795
  H      0.537642   -2.188248   -0.085323
  C      2.921304    0.041707   -0.910288
  H      3.742649   -0.666650   -0.744217
  H      2.757434    0.138639   -1.990095
  H      3.188617    1.009904   -0.490003
  N     -1.262316   -0.366766    0.400692
  C     -0.175021   -0.158867    1.355683
  H     -0.428978    0.607880    2.094756
  H     -0.041767   -1.097030    1.903966
  C     -2.087470   -1.559834    0.582198
  H     -2.708833   -1.693124   -0.302101
  H     -2.736388   -1.463288    1.463028
  H     -1.448242   -2.437116    0.716476
  C      1.187523    0.264655    0.780729
  O      1.772406    1.222448    1.299133

 Multiplicity           Mult            ....    1
 Number of Electrons    NEL             ....   86
 Basis Dimension        Dim             ....  182

ORBITAL ENERGIES
----------------

  NO   OCC          E(Eh)            E(eV)
   0   2.0000     -19.107442      -519.9399
   1   2.0000     -19.104386      -519.8568
   2   2.0000     -14.360742      -390.7756
   3   2.0000     -14.358074      -390.7030
   4   2.0000     -10.281936      -279.7857
   5   2.0000     -10.279686      -279.7245
   6   2.0000     -10.219596      -278.0893
   7   2.0000     -10.204982      -277.6917
   8   2.0000     -10.197974      -277.5010
   9   2.0000     -10.197943      -277.5001
  10   2.0000     -10.170164      -276.7442
  11   2.0000      -1.030949       -28.0535
  12   2.0000      -1.024409       -27.8756
  13   2.0000      -0.934246       -25.4221
  14   2.0000      -0.923878       -25.1400
  15   2.0000      -0.748362       -20.3640
  16   2.0000      -0.739488       -20.1225
  17   2.0000      -0.714273       -19.4364
  18   2.0000      -0.684397       -18.6234
  19   2.0000      -0.671806       -18.2808
  20   2.0000      -0.560440       -15.2503
  21   2.0000      -0.537601       -14.6289
  22   2.0000      -0.494590       -13.4585
  23   2.0000      -0.486684       -13.2433
  24   2.0000      -0.482448       -13.1281
  25   2.0000      -0.461952       -12.5703
  26   2.0000      -0.453554       -12.3418
  27   2.0000      -0.449685       -12.2365
  28   2.0000      -0.417408       -11.3583
  29   2.0000      -0.408330       -11.1112
  30   2.0000      -0.405434       -11.0324
  31   2.0000      -0.399914       -10.8822
  32   2.0000      -0.397439       -10.8149
  33   2.0000      -0.389791       -10.6068
  34   2.0000      -0.387481       -10.5439
  35   2.0000      -0.376536       -10.2461
  36   2.0000      -0.374092       -10.1796
  37   2.0000      -0.354656        -9.6507
  38   2.0000      -0.346578        -9.4309
  39   2.0000      -0.257870        -7.0170
  40   2.0000      -0.247679        -6.7397
  41   2.0000      -0.239201        -6.5090
  42   2.0000      -0.233356        -6.3499
  43   0.0000       0.018803         0.5117
  44   0.0000       0.027305         0.7430
  45   0.0000       0.083473         2.2714
  46   0.0000       0.106490         2.8977
  47   0.0000       0.129722         3.5299

MULLIKEN ATOMIC CHARGES
-----------------------
   0 C :    0.526121
   1 H :    0.189425
   2 H :    0.180554
   3 H :    0.197127
   4 O :   -0.531598
   5 C :   -0.566670
   6 N :   -0.360241
   7 C :   -0.328168
   8 H :    0.178687
   9 H :    0.178070
  10 H :    0.182834
  11 C :   -0.331455
  12 H :    0.172489
  13 H :    0.172874
  14 H :    0.187495
  15 N :   -0.371516
  16 C :   -0.263500
  17 H :    0.192131
  18 H :    0.205993
  19 C :   -0.332807
  20 H :    0.187073
  21 H :    0.171383
  22 H :    0.173106
  23 C :    0.529632
  24 O :   -0.539040
Sum of atomic charges:   -0.0000000

LOEWDIN ATOMIC CHARGES
----------------------
   0 C :    0.113907
   1 H :    0.151188
   2 H :    0.150313
   3 H :    0.158599
   4 O :   -0.331262
   5 C :   -0.397274
   6 N :   -0.070730
   7 C :   -0.274527
   8 H :    0.135424
   9 H :    0.140539
  10 H :    0.142719
  11 C :   -0.278396
  12 H :    0.134169
  13 H :    0.135321
  14 H :    0.148730
  15 N :   -0.086470
  16 C :   -0.179695
  17 H :    0.148514
  18 H :    0.163495
  19 C :   -0.279836
  20 H :    0.148147
  21 H :    0.131489
  22 H :    0.133613
  23 C :    0.095188
  24 O :   -0.333165

  Mayer bond orders larger than 0.100000
B(  0-C ,  4-O ) :   1.8051 B(  0-C ,  5-C ) :   0.9946 B(  0-C , 15-N ) :   1.1503
B(  1-H ,  5-C ) :   0.9175 B(  2-H ,  5-C ) :   0.9379 B(  3-H ,  5-C ) :   0.9193
B(  6-N ,  7-C ) :   0.9474 B(  6-N , 11-C ) :   0.9453 B(  6-N , 23-C ) :   1.1962
B(  6-N , 24-O ) :   0.1003 B(  7-C ,  8-H ) :   0.9302 B(  7-C ,  9-H ) :   0.9346
B(  7-C , 10-H ) :   0.9277 B( 11-C , 12-H ) :   0.9364 B( 11-C , 13-H ) :   0.9373
B( 11-C , 14-H ) :   0.9249 B( 15-N , 16-C ) :   0.9285 B( 15-N , 19-C ) :   0.9423
B( 16-C , 17-H ) :   0.9137 B( 16-C , 18-H ) :   0.9122 B( 16-C , 23-C ) :   0.9349
B( 19-C , 20-H ) :   0.9252 B( 19-C , 21-H ) :   0.9379 B( 19-C , 22-H ) :   0.9302
B( 23-C , 24-O ) :   1.7564

Dispersion correction           -0.039940221
FINAL SINGLE POINT ENERGY      -534.866623052403

DIPOLE MOMENT
-------------
                                X             Y             Z
Electronic contribution:     -2.15595       3.18333       2.16651
Nuclear contribution   :      3.10388      -4.88565      -2.09592
                        -----------------------------------------
Total Dipole Moment    :      0.94792      -1.70232       0.07059
                        -----------------------------------------
Magnitude (a.u.)       :      1.94973
Magnitude (Debye)      :      4.95581

Dispersion correction in the Hessian             ... Starting D4

VIBRATIONAL FREQUENCIES
-----------------------

Scaling factor for frequencies =  1.000000000  (already applied!)

   0:         0.00 cm**-1
   1:         0.00 cm**-1
   2:         0.00 cm**-1
   3:         0.00 cm**-1
   4:         0.00 cm**-1
   5:         0.00 cm**-1
   6:        20.10 cm**-1
   7:        63.35 cm**-1
   8:        68.74 cm**-1
   9:        88.14 cm**-1
  10:        98.01 cm**-1
  11:       135.81 cm**-1
  12:       152.42 cm**-1
  13:       173.67 cm**-1
  14:       206.67 cm**-1
  15:       233.36 cm**-1
  16:       268.74 cm**-1
  17:       306.80 cm**-1
  18:       314.47 cm**-1
  19:       381.44 cm**-1
  20:       411.73 cm**-1
  21:       456.03 cm**-1
  22:       477.32 cm**-1
  23:       568.42 cm**-1
  24:       600.07 cm**-1
  25:       615.23 cm**-1
  26:       684.37 cm**-1
  27:       743.32 cm**-1
  28:       804.04 cm**-1
  29:       974.52 cm**-1
  30:       989.46 cm**-1
  31:      1005.30 cm**-1
  32:      1044.99 cm**-1
  33:      1060.80 cm**-1
  34:      1087.80 cm**-1
  35:      1135.33 cm**-1
  36:      1151.78 cm**-1
  37:      1165.57 cm**-1
  38:      1176.45 cm**-1
  39:      1194.73 cm**-1
  40:      1261.74 cm**-1
  41:      1290.00 cm**-1
  42:      1307.77 cm**-1
  43:      1354.49 cm**-1
  44:      1410.80 cm**-1
  45:      1434.75 cm**-1
  46:      1440.61 cm**-1
  47:      1455.80 cm**-1
  48:      1466.74 cm**-1
  49:      1486.21 cm**-1
  50:      1491.59 cm**-1
  51:      1502.49 cm**-1
  52:      1506.39 cm**-1
  53:      1509.45 cm**-1
  54:      1514.41 cm**-1
  55:      1515.90 cm**-1
  56:      1519.20 cm**-1
  57:      1544.13 cm**-1
  58:      1552.40 cm**-1
  59:      1719.50 cm**-1
  60:      1726.23 cm**-1
  61:      3042.42 cm**-1
  62:      3043.92 cm**-1
  63:      3052.64 cm**-1
  64:      3067.43 cm**-1
  65:      3074.80 cm**-1
  66:      3097.73 cm**-1
  67:      3112.42 cm**-1
  68:      3114.72 cm**-1
  69:      3119.70 cm**-1
  70:      3135.88 cm**-1
  71:      3169.48 cm**-1
  72:      3182.97 cm**-1
  73:      3188.54 cm**-1
  74:      3194.50 cm**-1

IR SPECTRUM
-----------

 Mode   freq       eps      Int      T**2         TX        TY        TZ
       cm**-1   L/(mol*cm) km/mol    a.u.
----------------------------------------------------------------------------
  6:     20.10   0.000496    2.51  0.007701  ( 0.057289 -0.065390 -0.011953)
  7:     63.35   0.000744    3.76  0.003663  ( 0.038350 -0.039008  0.025902)
  8:     68.74   0.001302    6.58  0.005910  ( 0.045621 -0.000982 -0.061872)
  9:     88.14   0.000278    1.41  0.000986  ( 0.016921 -0.016186 -0.020914)
 10:     98.01   0.000271    1.37  0.000862  (-0.018246  0.022686  0.003858)
 11:    135.81   0.000610    3.08  0.001402  ( 0.003428  0.001423 -0.037255)
 12:    152.42   0.001801    9.10  0.003688  (-0.032271  0.051138  0.005593)
 13:    173.67   0.000067    0.34  0.000121  (-0.006546 -0.000054  0.008845)
 14:    206.67   0.000178    0.90  0.000268  ( 0.004641 -0.014408  0.006238)
 15:    233.36   0.001958    9.90  0.002618  (-0.028073  0.031907 -0.028500)
 16:    268.74   0.001505    7.60  0.001747  ( 0.039623 -0.013297 -0.000758)
 17:    306.80   0.001441    7.28  0.001466  ( 0.017830  0.011719 -0.031791)
 18:    314.47   0.000670    3.38  0.000664  ( 0.015054 -0.016000 -0.013483)
 19:    381.44   0.002980   15.06  0.002438  ( 0.036626 -0.028449 -0.016951)
 20:    411.73   0.000888    4.49  0.000673  (-0.009718 -0.004980  0.023539)
 21:    456.03   0.000819    4.14  0.000560  (-0.008569 -0.016935  0.014138)
 22:    477.32   0.004904   24.78  0.003206  (-0.041591 -0.034797  0.016298)
 23:    568.42   0.004783   24.17  0.002626  (-0.021655  0.005689 -0.046091)
 24:    600.07   0.000745    3.76  0.000387  ( 0.016351 -0.001500 -0.010848)
 25:    615.23   0.005658   28.59  0.002870  (-0.033896  0.040163  0.010393)
 26:    684.37   0.001836    9.28  0.000837  ( 0.010872 -0.022813 -0.014098)
 27:    743.32   0.003286   16.60  0.001379  (-0.024793  0.025532  0.010622)
 28:    804.04   0.002571   12.99  0.000998  ( 0.008441 -0.029491 -0.007550)
 29:    974.52   0.000713    3.60  0.000228  ( 0.014525  0.002599 -0.003251)
 30:    989.46   0.002539   12.83  0.000801  (-0.012791  0.020922  0.014119)
 31:   1005.30   0.006277   31.72  0.001949  (-0.014886  0.006564  0.041035)
 32:   1044.99   0.011340   57.31  0.003387  ( 0.037689 -0.029965  0.032683)
 33:   1060.80   0.003743   18.91  0.001101  ( 0.024381 -0.010276 -0.020024)
 34:   1087.80   0.002342   11.84  0.000672  ( 0.017423  0.018809  0.003813)
 35:   1135.33   0.000852    4.31  0.000234  (-0.004771 -0.010683 -0.009863)
 36:   1151.78   0.003394   17.15  0.000920  (-0.008436 -0.026970 -0.010999)
 37:   1165.57   0.007836   39.60  0.002098  (-0.030387  0.026469 -0.021773)
 38:   1176.45   0.000980    4.95  0.000260  ( 0.002099  0.012287  0.010222)
 39:   1194.73   0.016528   83.53  0.004317  (-0.032647  0.029446  0.048830)
 40:   1261.74   0.020075  101.45  0.004965  (-0.018936 -0.062712  0.025954)
 41:   1290.00   0.012092   61.11  0.002925  ( 0.048919  0.003156 -0.022850)
 42:   1307.77   0.000729    3.68  0.000174  ( 0.008621 -0.005492  0.008333)
 43:   1354.49   0.026846  135.67  0.006185  ( 0.038619 -0.029097  0.062025)
 44:   1410.80   0.001582    7.99  0.000350  (-0.016197 -0.008605 -0.003677)
 45:   1434.75   0.027104  136.97  0.005895  (-0.006024  0.037279 -0.066853)
 46:   1440.61   0.020882  105.53  0.004523  ( 0.033006 -0.051597 -0.027782)
 47:   1455.80   0.010227   51.68  0.002192  (-0.037029  0.006381  0.027937)
 48:   1466.74   0.011173   56.46  0.002377  (-0.008836  0.046852 -0.010193)
 49:   1486.21   0.005013   25.33  0.001053  ( 0.003504  0.030990 -0.008943)
 50:   1491.59   0.005717   28.89  0.001196  (-0.029349 -0.012607 -0.013255)
 51:   1502.49   0.004140   20.92  0.000860  ( 0.010864 -0.022681 -0.015079)
 52:   1506.39   0.002666   13.47  0.000552  (-0.006428 -0.020868  0.008692)
 53:   1509.45   0.001091    5.51  0.000225  ( 0.000052 -0.014835  0.002321)
 54:   1514.41   0.002400   12.13  0.000494  (-0.011999  0.000906  0.018700)
 55:   1515.90   0.002533   12.80  0.000522  ( 0.021617 -0.003365  0.006551)
 56:   1519.20   0.003393   17.14  0.000697  (-0.025439 -0.001116  0.006963)
 57:   1544.13   0.015677   79.23  0.003168  ( 0.003063 -0.037393  0.041961)
 58:   1552.40   0.014247   72.00  0.002864  (-0.040545  0.023144  0.026162)
 59:   1719.50   0.130408  659.03  0.023667  ( 0.046728  0.103037  0.104244)
 60:   1726.23   0.081446  411.59  0.014724  (-0.097703  0.038555 -0.060755)
 61:   3042.42   0.012505   63.20  0.001283  ( 0.019981  0.020085 -0.021910)
 62:   3043.92   0.009395   47.48  0.000963  (-0.029233 -0.002084  0.010210)
 63:   3052.64   0.013133   66.37  0.001343  (-0.000455  0.022705  0.028755)
 64:   3067.43   0.000556    2.81  0.000057  (-0.004799 -0.005321  0.002287)
 65:   3074.80   0.005230   26.43  0.000531  ( 0.003178  0.004689  0.022332)
 66:   3097.73   0.009692   48.98  0.000976  ( 0.017519 -0.015803  0.020487)
 67:   3112.42   0.004742   23.96  0.000475  ( 0.017017 -0.013194  0.003430)
 68:   3114.72   0.007503   37.92  0.000752  (-0.018537  0.019599  0.004895)
 69:   3119.70   0.003792   19.16  0.000379  ( 0.007047 -0.015956 -0.008663)
 70:   3135.88   0.002028   10.25  0.000202  ( 0.006301 -0.009731 -0.008214)
 71:   3169.48   0.002462   12.44  0.000242  ( 0.009263 -0.007746  0.009826)
 72:   3182.97   0.003898   19.70  0.000382  (-0.010612 -0.010156  0.012899)
 73:   3188.54   0.001197    6.05  0.000117  ( 0.006716  0.001158  0.008410)
 74:   3194.50   0.000882    4.46  0.000086  (-0.004657 -0.008023  0.000331)

--------------------------
THERMOCHEMISTRY AT 298.15K
--------------------------

Temperature         ... 298.15 K
Pressure            ... 1.00 atm
Total Mass          ... 158.20 AMU

Throughout the following assumptions are being made:
  (1) The electronic state is orbitally nondegenerate
  (2) There are no thermally accessible electronically excited states
  (3) Hindered rotations indicated by low frequency modes are not
      treated as such but are treated as vibrations and this may
      cause some error
  (4) All equations used are the standard statistical mechanics
      equations for an ideal gas
  (5) All vibrations are strictly harmonic

freq.      20.10  E(vib)   ...       0.56
freq.      63.35  E(vib)   ...       0.51
freq.      68.74  E(vib)   ...       0.50
freq.      88.14  E(vib)   ...       0.48
freq.      98.01  E(vib)   ...       0.46
freq.     135.81  E(vib)   ...       0.42
freq.     152.42  E(vib)   ...       0.40
freq.     173.67  E(vib)   ...       0.38
freq.     206.67  E(vib)   ...       0.35
freq.     233.36  E(vib)   ...       0.32
freq.     268.74  E(vib)   ...       0.29
freq.     306.80  E(vib)   ...       0.26
freq.     314.47  E(vib)   ...       0.25
freq.     381.44  E(vib)   ...       0.21
freq.     411.73  E(vib)   ...       0.19
freq.     456.03  E(vib)   ...       0.16
freq.     477.32  E(vib)   ...       0.15
freq.     568.42  E(vib)   ...       0.11
freq.     600.07  E(vib)   ...       0.10
freq.     615.23  E(vib)   ...       0.10
freq.     684.37  E(vib)   ...       0.07
freq.     743.32  E(vib)   ...       0.06
freq.     804.04  E(vib)   ...       0.05
freq.     974.52  E(vib)   ...       0.03
freq.     989.46  E(vib)   ...       0.02
freq.    1005.30  E(vib)   ...       0.02
freq.    1044.99  E(vib)   ...       0.02
freq.    1060.80  E(vib)   ...       0.02
freq.    1087.80  E(vib)   ...       0.02
freq.    1135.33  E(vib)   ...       0.01
freq.    1151.78  E(vib)   ...       0.01
freq.    1165.57  E(vib)   ...       0.01
freq.    1176.45  E(vib)   ...       0.01
freq.    1194.73  E(vib)   ...       0.01
freq.    1261.74  E(vib)   ...       0.01
freq.    1290.00  E(vib)   ...       0.01
freq.    1307.77  E(vib)   ...       0.01
freq.    1354.49  E(vib)   ...       0.01
freq.    1410.80  E(vib)   ...       0.00
freq.    1434.75  E(vib)   ...       0.00
freq.    1440.61  E(vib)   ...       0.00
freq.    1455.80  E(vib)   ...       0.00
freq.    1466.74  E(vib)   ...       0.00
freq.    1486.21  E(vib)   ...       0.00
freq.    1491.59  E(vib)   ...       0.00
freq.    1502.49  E(vib)   ...       0.00
freq.    1506.39  E(vib)   ...       0.00
freq.    1509.45  E(vib)   ...       0.00
freq.    1514.41  E(vib)   ...       0.00
freq.    1515.90  E(vib)   ...       0.00
freq.    1519.20  E(vib)   ...       0.00
freq.    1544.13  E(vib)   ...       0.00
freq.    1552.40  E(vib)   ...       0.00
freq.    1719.50  E(vib)   ...       0.00
freq.    1726.23  E(vib)   ...       0.00
freq.    3042.42  E(vib)   ...       0.00
freq.    3043.92  E(vib)   ...       0.00
freq.    3052.64  E(vib)   ...       0.00
freq.    3067.43  E(vib)   ...       0.00
freq.    3074.80  E(vib)   ...       0.00
freq.    3097.73  E(vib)   ...       0.00
freq.    3112.42  E(vib)   ...       0.00
freq.    3114.72  E(vib)   ...       0.00
freq.    3119.70  E(vib)   ...       0.00
freq.    3135.88  E(vib)   ...       0.00
freq.    3169.48  E(vib)   ...       0.00
freq.    3182.97  E(vib)   ...       0.00
freq.    3188.54  E(vib)   ...       0.00
freq.    3194.50  E(vib)   ...       0.00

------------
INNER ENERGY
------------

The inner energy is: U= E(el) + E(ZPE) + E(vib) + E(rot) + E(trans)
    E(el)   - is the total energy from the electronic structure calculation
              = E(kin-el) + E(nuc-el) + E(el-el) + E(nuc-nuc)
    E(ZPE)  - the the zero temperature vibrational energy from the frequency calculation
    E(vib)  - the the finite temperature correction to E(ZPE) due to population
              of excited vibrational states
    E(rot)  - is the rotational thermal energy
    E(trans)- is the translational thermal energy

Summary of contributions to the inner energy U:
Electronic energy                ...   -534.86662305 Eh
Zero point energy                ...      0.21521103 Eh     135.05 kcal/mol
Thermal vibrational correction   ...      0.01057826 Eh       6.64 kcal/mol
Thermal rotational correction    ...      0.00141627 Eh       0.89 kcal/mol
Thermal translational correction ...      0.00141627 Eh       0.89 kcal/mol
-----------------------------------------------------------------------
Total thermal energy                   -534.63800122 Eh

Summary of corrections to the electronic energy:
(perhaps to be used in another calculation)
Total thermal correction                  0.01341080 Eh       8.42 kcal/mol
Non-thermal (ZPE) correction              0.21521103 Eh     135.05 kcal/mol
-----------------------------------------------------------------------
Total correction                          0.22862183 Eh     143.46 kcal/mol

--------
ENTHALPY
--------

The enthalpy is H = U + kB*T
                kB is Boltzmann's constant
Total free energy                 ...   -534.63800122 Eh
Thermal Enthalpy correction       ...      0.00094421 Eh       0.59 kcal/mol
-----------------------------------------------------------------------
Total Enthalpy                    ...   -534.63705701 Eh

Note: Only C1 symmetry has been detected, increase convergence thresholds
      if your molecule has a higher symmetry. Symmetry factor of 1.0 is
      used for the rotational entropy correction.

Note: Rotational entropy computed according to Herzberg
Infrared and Raman Spectra, Chapter V,1, Van Nostrand Reinhold, 1945
Point Group:  C1, Symmetry Number:   1
Rotational constants in cm-1:     0.053749     0.025848     0.023820

Vibrational entropy computed according to the QRRHO of S. Grimme
Chem.Eur.J. 2012 18 9955

-------
ENTROPY
-------

The entropy contributions are T*S = T*(S(el)+S(vib)+S(rot)+S(trans))
     S(el)   - electronic entropy
     S(vib)  - vibrational entropy
     S(rot)  - rotational entropy
     S(trans)- translational entropy
The entropies will be listed as multiplied by the temperature to get
units of energy

Electronic entropy                ...      0.00000000 Eh      0.00 kcal/mol
Vibrational entropy               ...      0.01922960 Eh     12.07 kcal/mol
Rotational entropy                ...      0.01438097 Eh      9.02 kcal/mol
Translational entropy             ...      0.01952088 Eh     12.25 kcal/mol
-----------------------------------------------------------------------

                             ****ORCA TERMINATED NORMALLY****
TOTAL RUN TIME: 0 days 0 hours 12 minutes 13 seconds 275 msec
