                         Program Version 5.0.4 -  RELEASE  -
|  1> ! OPT FREQ B3LYP 6-31G(d) D4 AUTOAUX CPCM(water)
|  2>
|  3> %PAL NPROCS 4 END
|  4>
|  5> %maxcore 3375
|  6>
|  7> *xyzfile 0 1 /users/fjb15167/WWenergy/structures/Na.xyz
|  8>
|  9>                          ****END OF INPUT****
 Total Charge           Charge          ....    0
 Multiplicity           Mult            ....    1
 Number of Electrons    NEL             ....   86
Dispersion correction           -0.039958276
FINAL SINGLE POINT ENERGY      -534.867757304293
Dispersion correction            ... Starting D4
Dispersion correction           -0.039654135
FINAL SINGLE POINT ENERGY      -534.868256980214
Dispersion correction            ... Starting D4
Dispersion correction           -0.039911232
FINAL SINGLE POINT ENERGY      -534.868445205774
Dispersion correction            ... Starting D4
FINAL SINGLE POINT ENERGY      -534.868512020772
FINAL SINGLE POINT ENERGY      -534.868553992185
FINAL SINGLE POINT ENERGY      -534.868575764536
FINAL SINGLE POINT ENERGY      -534.868589916926
FINAL SINGLE POINT ENERGY      -534.868595982273
FINAL SINGLE POINT ENERGY      -534.868600497017
Dispersion correction           -0.039945942
FINAL SINGLE POINT ENERGY      -534.868603012028
Dispersion correction            ... Starting D4
Dispersion correction           -0.039956039
FINAL SINGLE POINT ENERGY      -534.868605405875
Dispersion correction            ... Starting D4
                    ***********************HURRAY********************

CARTESIAN COORDINATES (ANGSTROEM)
---------------------------------
  C     -1.720550    0.620781   -0.435496
  H     -0.596103    2.284668    0.448088
  H     -1.546031    2.654969   -1.017123
  H     -0.023307    1.751717   -1.136745
  O     -2.737977    0.463753   -1.119783
  C     -0.920085    1.908014   -0.525727
  N      1.695271   -0.429844   -0.270550
  C      1.119480   -1.650352   -0.826486
  H      0.468816   -1.439968   -1.683862
  H      1.939454   -2.293978   -1.160108
  H      0.553644   -2.199841   -0.075050
  C      2.920056    0.038200   -0.911848
  H      3.749449   -0.651639   -0.711226
  H      2.767453    0.094318   -1.995744
  H      3.168955    1.024632   -0.523558
  N     -1.261134   -0.364267    0.399511
  C     -0.173709   -0.158872    1.355757
  H     -0.429294    0.606054    2.095938
  H     -0.039746   -1.097946    1.901984
  C     -2.084201   -1.560421    0.573794
  H     -2.679175   -1.712827   -0.325500
  H     -2.758543   -1.455847    1.434216
  H     -1.442062   -2.429683    0.738794
  C      1.187625    0.264159    0.779190
  O      1.775715    1.221217    1.298532

 Multiplicity           Mult            ....    1
 Number of Electrons    NEL             ....   86
 Basis Dimension        Dim             ....  182

ORBITAL ENERGIES
----------------

  NO   OCC          E(Eh)            E(eV)
   0   2.0000     -19.107328      -519.9368
   1   2.0000     -19.104942      -519.8719
   2   2.0000     -14.360085      -390.7578
   3   2.0000     -14.358118      -390.7042
   4   2.0000     -10.281441      -279.7722
   5   2.0000     -10.279983      -279.7326
   6   2.0000     -10.218538      -278.0606
   7   2.0000     -10.202863      -277.6340
   8   2.0000     -10.196924      -277.4724
   9   2.0000     -10.196810      -277.4693
  10   2.0000     -10.170133      -276.7434
  11   2.0000      -1.030475       -28.0407
  12   2.0000      -1.024247       -27.8712
  13   2.0000      -0.933720       -25.4078
  14   2.0000      -0.923368       -25.1261
  15   2.0000      -0.747877       -20.3508
  16   2.0000      -0.739256       -20.1162
  17   2.0000      -0.712700       -19.3935
  18   2.0000      -0.683630       -18.6025
  19   2.0000      -0.671524       -18.2731
  20   2.0000      -0.559811       -15.2332
  21   2.0000      -0.536373       -14.5955
  22   2.0000      -0.494227       -13.4486
  23   2.0000      -0.486016       -13.2252
  24   2.0000      -0.481720       -13.1083
  25   2.0000      -0.461134       -12.5481
  26   2.0000      -0.452886       -12.3237
  27   2.0000      -0.449258       -12.2249
  28   2.0000      -0.416661       -11.3379
  29   2.0000      -0.407730       -11.0949
  30   2.0000      -0.404800       -11.0152
  31   2.0000      -0.399442       -10.8694
  32   2.0000      -0.396297       -10.7838
  33   2.0000      -0.388945       -10.5837
  34   2.0000      -0.387284       -10.5385
  35   2.0000      -0.375876       -10.2281
  36   2.0000      -0.372806       -10.1446
  37   2.0000      -0.354079        -9.6350
  38   2.0000      -0.346492        -9.4285
  39   2.0000      -0.258082        -7.0228
  40   2.0000      -0.248367        -6.7584
  41   2.0000      -0.238768        -6.4972
  42   2.0000      -0.233251        -6.3471
  43   0.0000       0.019085         0.5193
  44   0.0000       0.027078         0.7368
  45   0.0000       0.085278         2.3205
  46   0.0000       0.108965         2.9651
  47   0.0000       0.130762         3.5582

MULLIKEN ATOMIC CHARGES
-----------------------
   0 C :    0.527029
   1 H :    0.189586
   2 H :    0.179668
   3 H :    0.199174
   4 O :   -0.540641
   5 C :   -0.567577
   6 N :   -0.358495
   7 C :   -0.330813
   8 H :    0.179719
   9 H :    0.181116
  10 H :    0.185715
  11 C :   -0.331859
  12 H :    0.174671
  13 H :    0.175461
  14 H :    0.184486
  15 N :   -0.370157
  16 C :   -0.264472
  17 H :    0.192512
  18 H :    0.210719
  19 C :   -0.332874
  20 H :    0.184147
  21 H :    0.172735
  22 H :    0.177654
  23 C :    0.530026
  24 O :   -0.547532
Sum of atomic charges:    0.0000000

LOEWDIN ATOMIC CHARGES
----------------------
   0 C :    0.114096
   1 H :    0.151177
   2 H :    0.149878
   3 H :    0.159711
   4 O :   -0.339112
   5 C :   -0.397737
   6 N :   -0.068595
   7 C :   -0.274808
   8 H :    0.136077
   9 H :    0.142339
  10 H :    0.143869
  11 C :   -0.278171
  12 H :    0.135147
  13 H :    0.137040
  14 H :    0.147154
  15 N :   -0.083714
  16 C :   -0.179487
  17 H :    0.148833
  18 H :    0.165866
  19 C :   -0.279424
  20 H :    0.146536
  21 H :    0.132299
  22 H :    0.136347
  23 C :    0.095309
  24 O :   -0.340628

  Mayer bond orders larger than 0.100000
B(  0-C ,  4-O ) :   1.7966 B(  0-C ,  5-C ) :   0.9958 B(  0-C , 15-N ) :   1.1580
B(  1-H ,  5-C ) :   0.9171 B(  2-H ,  5-C ) :   0.9379 B(  3-H ,  5-C ) :   0.9188
B(  6-N ,  7-C ) :   0.9450 B(  6-N , 11-C ) :   0.9445 B(  6-N , 23-C ) :   1.2035
B(  7-C ,  8-H ) :   0.9300 B(  7-C ,  9-H ) :   0.9344 B(  7-C , 10-H ) :   0.9271
B( 11-C , 12-H ) :   0.9359 B( 11-C , 13-H ) :   0.9370 B( 11-C , 14-H ) :   0.9263
B( 15-N , 16-C ) :   0.9278 B( 15-N , 19-C ) :   0.9406 B( 16-C , 17-H ) :   0.9137
B( 16-C , 18-H ) :   0.9106 B( 16-C , 23-C ) :   0.9362 B( 19-C , 20-H ) :   0.9269
B( 19-C , 21-H ) :   0.9377 B( 19-C , 22-H ) :   0.9297 B( 23-C , 24-O ) :   1.7484

Dispersion correction           -0.039958548
FINAL SINGLE POINT ENERGY      -534.868606998303

DIPOLE MOMENT
-------------
                                X             Y             Z
Electronic contribution:     -2.12776       3.13107       2.18182
Nuclear contribution   :      3.11188      -4.91568      -2.11135
                        -----------------------------------------
Total Dipole Moment    :      0.98412      -1.78462       0.07047
                        -----------------------------------------
Magnitude (a.u.)       :      2.03919
Magnitude (Debye)      :      5.18322

Dispersion correction in the Hessian             ... Starting D4

VIBRATIONAL FREQUENCIES
-----------------------

Scaling factor for frequencies =  1.000000000  (already applied!)

   0:         0.00 cm**-1
   1:         0.00 cm**-1
   2:         0.00 cm**-1
   3:         0.00 cm**-1
   4:         0.00 cm**-1
   5:         0.00 cm**-1
   6:        14.04 cm**-1
   7:        64.11 cm**-1
   8:        71.14 cm**-1
   9:        89.26 cm**-1
  10:        98.08 cm**-1
  11:       139.30 cm**-1
  12:       153.45 cm**-1
  13:       172.32 cm**-1
  14:       207.58 cm**-1
  15:       233.78 cm**-1
  16:       268.81 cm**-1
  17:       309.25 cm**-1
  18:       315.59 cm**-1
  19:       383.60 cm**-1
  20:       413.78 cm**-1
  21:       457.04 cm**-1
  22:       477.51 cm**-1
  23:       569.38 cm**-1
  24:       600.84 cm**-1
  25:       615.57 cm**-1
  26:       684.56 cm**-1
  27:       743.84 cm**-1
  28:       805.51 cm**-1
  29:       974.79 cm**-1
  30:       989.75 cm**-1
  31:      1005.75 cm**-1
  32:      1045.58 cm**-1
  33:      1060.62 cm**-1
  34:      1088.21 cm**-1
  35:      1134.93 cm**-1
  36:      1150.79 cm**-1
  37:      1165.01 cm**-1
  38:      1175.13 cm**-1
  39:      1195.49 cm**-1
  40:      1262.75 cm**-1
  41:      1290.17 cm**-1
  42:      1307.70 cm**-1
  43:      1355.14 cm**-1
  44:      1409.93 cm**-1
  45:      1435.24 cm**-1
  46:      1440.60 cm**-1
  47:      1456.72 cm**-1
  48:      1467.87 cm**-1
  49:      1485.68 cm**-1
  50:      1490.87 cm**-1
  51:      1501.76 cm**-1
  52:      1504.76 cm**-1
  53:      1508.46 cm**-1
  54:      1513.65 cm**-1
  55:      1515.61 cm**-1
  56:      1518.12 cm**-1
  57:      1544.00 cm**-1
  58:      1551.77 cm**-1
  59:      1713.21 cm**-1
  60:      1718.64 cm**-1
  61:      3044.27 cm**-1
  62:      3045.71 cm**-1
  63:      3055.24 cm**-1
  64:      3067.10 cm**-1
  65:      3076.85 cm**-1
  66:      3101.16 cm**-1
  67:      3116.76 cm**-1
  68:      3120.09 cm**-1
  69:      3122.81 cm**-1
  70:      3136.71 cm**-1
  71:      3169.54 cm**-1
  72:      3181.54 cm**-1
  73:      3187.90 cm**-1
  74:      3193.20 cm**-1

IR SPECTRUM
-----------

 Mode   freq       eps      Int      T**2         TX        TY        TZ
       cm**-1   L/(mol*cm) km/mol    a.u.
----------------------------------------------------------------------------
  6:     14.04   0.000412    2.08  0.009156  ( 0.059476 -0.074895 -0.003019)
  7:     64.11   0.000936    4.73  0.004557  (-0.052531  0.041843 -0.006833)
  8:     71.14   0.001412    7.14  0.006195  ( 0.035906  0.008384 -0.069538)
  9:     89.26   0.000313    1.58  0.001095  ( 0.017104 -0.016382 -0.023121)
 10:     98.08   0.000290    1.47  0.000922  (-0.019532  0.022058  0.007379)
 11:    139.30   0.000614    3.11  0.001377  ( 0.002938  0.001665 -0.036948)
 12:    153.45   0.002010   10.16  0.004089  (-0.033470  0.054167  0.005852)
 13:    172.32   0.000083    0.42  0.000151  (-0.007136  0.001151  0.009932)
 14:    207.58   0.000136    0.69  0.000204  ( 0.002916 -0.013163  0.004748)
 15:    233.78   0.002139   10.81  0.002855  (-0.029181  0.032863 -0.030394)
 16:    268.81   0.001516    7.66  0.001760  ( 0.039765 -0.013356 -0.000278)
 17:    309.25   0.001547    7.82  0.001561  ( 0.018760  0.011642 -0.032759)
 18:    315.59   0.000704    3.56  0.000697  ( 0.014724 -0.017531 -0.013133)
 19:    383.60   0.003267   16.51  0.002658  (-0.038190  0.028601  0.019535)
 20:    413.78   0.000886    4.48  0.000668  (-0.007813 -0.006869  0.023668)
 21:    457.04   0.000961    4.86  0.000656  (-0.009033 -0.018963  0.014671)
 22:    477.51   0.005075   25.65  0.003317  ( 0.042448  0.035393 -0.016193)
 23:    569.38   0.005250   26.53  0.002878  (-0.022236  0.006076 -0.048437)
 24:    600.84   0.000688    3.47  0.000357  (-0.015617 -0.000419  0.010633)
 25:    615.57   0.006167   31.17  0.003126  (-0.035331  0.041835  0.011313)
 26:    684.56   0.001962    9.92  0.000895  ( 0.011548 -0.023793 -0.013968)
 27:    743.84   0.003377   17.07  0.001417  ( 0.025296 -0.025694 -0.010807)
 28:    805.51   0.002577   13.02  0.000998  ( 0.007878 -0.029272 -0.008918)
 29:    974.79   0.000744    3.76  0.000238  ( 0.014932  0.001867 -0.003434)
 30:    989.75   0.002574   13.01  0.000811  (-0.011753  0.022511  0.012907)
 31:   1005.75   0.006307   31.87  0.001957  (-0.014694  0.007000  0.041133)
 32:   1045.58   0.011538   58.31  0.003444  ( 0.038804 -0.028534  0.033521)
 33:   1060.62   0.004165   21.05  0.001225  ( 0.025497 -0.010637 -0.021500)
 34:   1088.21   0.002652   13.40  0.000760  ( 0.018934  0.019684  0.003800)
 35:   1134.93   0.001102    5.57  0.000303  (-0.004071 -0.012245 -0.011686)
 36:   1150.79   0.003647   18.43  0.000989  (-0.010020 -0.027901 -0.010487)
 37:   1165.01   0.008049   40.67  0.002156  (-0.030117  0.027019 -0.022779)
 38:   1175.13   0.000763    3.86  0.000203  ( 0.004447  0.011014  0.007848)
 39:   1195.49   0.017438   88.13  0.004552  (-0.033207  0.030397  0.050252)
 40:   1262.75   0.020319  102.69  0.005021  (-0.020386 -0.063110  0.024959)
 41:   1290.17   0.011998   60.63  0.002902  ( 0.048717  0.001959 -0.022911)
 42:   1307.70   0.000895    4.52  0.000214  (-0.009139  0.005323 -0.010087)
 43:   1355.14   0.028105  142.03  0.006472  ( 0.039435 -0.029745  0.063501)
 44:   1409.93   0.001687    8.53  0.000373  (-0.016353 -0.009790 -0.003196)
 45:   1435.24   0.029061  146.86  0.006319  (-0.003567  0.036235 -0.070662)
 46:   1440.60   0.022582  114.12  0.004892  ( 0.034565 -0.055862 -0.024009)
 47:   1456.72   0.009610   48.57  0.002059  (-0.035644  0.006837  0.027231)
 48:   1467.87   0.010234   51.72  0.002176  (-0.010282  0.044561 -0.009184)
 49:   1485.68   0.005265   26.61  0.001106  ( 0.002598  0.031822 -0.009299)
 50:   1490.87   0.006221   31.44  0.001302  (-0.029756 -0.015425 -0.013370)
 51:   1501.76   0.004432   22.40  0.000921  ( 0.010912 -0.022663 -0.016980)
 52:   1504.76   0.003059   15.46  0.000634  (-0.002749 -0.023556  0.008481)
 53:   1508.46   0.001245    6.29  0.000258  (-0.000240 -0.015757  0.003030)
 54:   1513.65   0.001652    8.35  0.000341  (-0.005304 -0.000157  0.017677)
 55:   1515.61   0.004211   21.28  0.000867  (-0.029425 -0.000658  0.000828)
 56:   1518.12   0.002329   11.77  0.000479  (-0.020682  0.000135  0.007147)
 57:   1544.00   0.017722   89.56  0.003582  (-0.002398 -0.037838  0.046307)
 58:   1551.77   0.015326   77.45  0.003082  (-0.042848  0.026906  0.022852)
 59:   1713.21   0.147771  746.77  0.026917  ( 0.057834  0.102651  0.114169)
 60:   1718.64   0.079955  404.06  0.014518  (-0.095775  0.050864 -0.052514)
 61:   3044.27   0.012695   64.16  0.001301  (-0.021152 -0.019507  0.021760)
 62:   3045.71   0.010098   51.03  0.001035  ( 0.030601  0.000628 -0.009890)
 63:   3055.24   0.012726   64.31  0.001300  ( 0.001244  0.023028  0.027712)
 64:   3067.10   0.000550    2.78  0.000056  (-0.004579 -0.005443  0.002316)
 65:   3076.85   0.005390   27.24  0.000547  ( 0.003347  0.005441  0.022492)
 66:   3101.16   0.009564   48.33  0.000962  ( 0.016473 -0.014897  0.021659)
 67:   3116.76   0.004811   24.31  0.000482  ( 0.017199 -0.013232  0.003291)
 68:   3120.09   0.004146   20.95  0.000415  ( 0.014946 -0.013726 -0.001711)
 69:   3122.81   0.006593   33.32  0.000659  ( 0.011743 -0.020308 -0.010418)
 70:   3136.71   0.002143   10.83  0.000213  ( 0.006374 -0.010508 -0.007886)
 71:   3169.54   0.002585   13.06  0.000255  ( 0.009432 -0.007598  0.010384)
 72:   3181.54   0.003992   20.17  0.000392  (-0.010680 -0.010358  0.013045)
 73:   3187.90   0.001609    8.13  0.000158  ( 0.007309  0.000668  0.010181)
 74:   3193.20   0.001107    5.59  0.000108  (-0.004480 -0.009385 -0.000051)

--------------------------
THERMOCHEMISTRY AT 298.15K
--------------------------

Temperature         ... 298.15 K
Pressure            ... 1.00 atm
Total Mass          ... 158.20 AMU

Throughout the following assumptions are being made:
  (1) The electronic state is orbitally nondegenerate
  (2) There are no thermally accessible electronically excited states
  (3) Hindered rotations indicated by low frequency modes are not
      treated as such but are treated as vibrations and this may
      cause some error
  (4) All equations used are the standard statistical mechanics
      equations for an ideal gas
  (5) All vibrations are strictly harmonic

freq.      14.04  E(vib)   ...       0.57
freq.      64.11  E(vib)   ...       0.51
freq.      71.14  E(vib)   ...       0.50
freq.      89.26  E(vib)   ...       0.47
freq.      98.08  E(vib)   ...       0.46
freq.     139.30  E(vib)   ...       0.42
freq.     153.45  E(vib)   ...       0.40
freq.     172.32  E(vib)   ...       0.38
freq.     207.58  E(vib)   ...       0.34
freq.     233.78  E(vib)   ...       0.32
freq.     268.81  E(vib)   ...       0.29
freq.     309.25  E(vib)   ...       0.26
freq.     315.59  E(vib)   ...       0.25
freq.     383.60  E(vib)   ...       0.20
freq.     413.78  E(vib)   ...       0.19
freq.     457.04  E(vib)   ...       0.16
freq.     477.51  E(vib)   ...       0.15
freq.     569.38  E(vib)   ...       0.11
freq.     600.84  E(vib)   ...       0.10
freq.     615.57  E(vib)   ...       0.10
freq.     684.56  E(vib)   ...       0.07
freq.     743.84  E(vib)   ...       0.06
freq.     805.51  E(vib)   ...       0.05
freq.     974.79  E(vib)   ...       0.03
freq.     989.75  E(vib)   ...       0.02
freq.    1005.75  E(vib)   ...       0.02
freq.    1045.58  E(vib)   ...       0.02
freq.    1060.62  E(vib)   ...       0.02
freq.    1088.21  E(vib)   ...       0.02
freq.    1134.93  E(vib)   ...       0.01
freq.    1150.79  E(vib)   ...       0.01
freq.    1165.01  E(vib)   ...       0.01
freq.    1175.13  E(vib)   ...       0.01
freq.    1195.49  E(vib)   ...       0.01
freq.    1262.75  E(vib)   ...       0.01
freq.    1290.17  E(vib)   ...       0.01
freq.    1307.70  E(vib)   ...       0.01
freq.    1355.14  E(vib)   ...       0.01
freq.    1409.93  E(vib)   ...       0.00
freq.    1435.24  E(vib)   ...       0.00
freq.    1440.60  E(vib)   ...       0.00
freq.    1456.72  E(vib)   ...       0.00
freq.    1467.87  E(vib)   ...       0.00
freq.    1485.68  E(vib)   ...       0.00
freq.    1490.87  E(vib)   ...       0.00
freq.    1501.76  E(vib)   ...       0.00
freq.    1504.76  E(vib)   ...       0.00
freq.    1508.46  E(vib)   ...       0.00
freq.    1513.65  E(vib)   ...       0.00
freq.    1515.61  E(vib)   ...       0.00
freq.    1518.12  E(vib)   ...       0.00
freq.    1544.00  E(vib)   ...       0.00
freq.    1551.77  E(vib)   ...       0.00
freq.    1713.21  E(vib)   ...       0.00
freq.    1718.64  E(vib)   ...       0.00
freq.    3044.27  E(vib)   ...       0.00
freq.    3045.71  E(vib)   ...       0.00
freq.    3055.24  E(vib)   ...       0.00
freq.    3067.10  E(vib)   ...       0.00
freq.    3076.85  E(vib)   ...       0.00
freq.    3101.16  E(vib)   ...       0.00
freq.    3116.76  E(vib)   ...       0.00
freq.    3120.09  E(vib)   ...       0.00
freq.    3122.81  E(vib)   ...       0.00
freq.    3136.71  E(vib)   ...       0.00
freq.    3169.54  E(vib)   ...       0.00
freq.    3181.54  E(vib)   ...       0.00
freq.    3187.90  E(vib)   ...       0.00
freq.    3193.20  E(vib)   ...       0.00

------------
INNER ENERGY
------------

The inner energy is: U= E(el) + E(ZPE) + E(vib) + E(rot) + E(trans)
    E(el)   - is the total energy from the electronic structure calculation
              = E(kin-el) + E(nuc-el) + E(el-el) + E(nuc-nuc)
    E(ZPE)  - the the zero temperature vibrational energy from the frequency calculation
    E(vib)  - the the finite temperature correction to E(ZPE) due to population
              of excited vibrational states
    E(rot)  - is the rotational thermal energy
    E(trans)- is the translational thermal energy

Summary of contributions to the inner energy U:
Electronic energy                ...   -534.86860700 Eh
Zero point energy                ...      0.21525477 Eh     135.07 kcal/mol
Thermal vibrational correction   ...      0.01056383 Eh       6.63 kcal/mol
Thermal rotational correction    ...      0.00141627 Eh       0.89 kcal/mol
Thermal translational correction ...      0.00141627 Eh       0.89 kcal/mol
-----------------------------------------------------------------------
Total thermal energy                   -534.63995585 Eh

Summary of corrections to the electronic energy:
(perhaps to be used in another calculation)
Total thermal correction                  0.01339637 Eh       8.41 kcal/mol
Non-thermal (ZPE) correction              0.21525477 Eh     135.07 kcal/mol
-----------------------------------------------------------------------
Total correction                          0.22865114 Eh     143.48 kcal/mol

--------
ENTHALPY
--------

The enthalpy is H = U + kB*T
                kB is Boltzmann's constant
Total free energy                 ...   -534.63995585 Eh
Thermal Enthalpy correction       ...      0.00094421 Eh       0.59 kcal/mol
-----------------------------------------------------------------------
Total Enthalpy                    ...   -534.63901164 Eh

Note: Only C1 symmetry has been detected, increase convergence thresholds
      if your molecule has a higher symmetry. Symmetry factor of 1.0 is
      used for the rotational entropy correction.

Note: Rotational entropy computed according to Herzberg
Infrared and Raman Spectra, Chapter V,1, Van Nostrand Reinhold, 1945
Point Group:  C1, Symmetry Number:   1
Rotational constants in cm-1:     0.053766     0.025880     0.023804

Vibrational entropy computed according to the QRRHO of S. Grimme
Chem.Eur.J. 2012 18 9955

-------
ENTROPY
-------

The entropy contributions are T*S = T*(S(el)+S(vib)+S(rot)+S(trans))
     S(el)   - electronic entropy
     S(vib)  - vibrational entropy
     S(rot)  - rotational entropy
     S(trans)- translational entropy
The entropies will be listed as multiplied by the temperature to get
units of energy

Electronic entropy                ...      0.00000000 Eh      0.00 kcal/mol
Vibrational entropy               ...      0.01933666 Eh     12.13 kcal/mol
Rotational entropy                ...      0.01438055 Eh      9.02 kcal/mol
Translational entropy             ...      0.01952088 Eh     12.25 kcal/mol
-----------------------------------------------------------------------

                             ****ORCA TERMINATED NORMALLY****
TOTAL RUN TIME: 0 days 0 hours 15 minutes 14 seconds 446 msec
