                         Program Version 5.0.4 -  RELEASE  -
|  1> ! OPT FREQ B3LYP 6-31+G(d) D4 AUTOAUX CPCM(water)
|  2>
|  3> %PAL NPROCS 4 END
|  4>
|  5> %maxcore 3375
|  6>
|  7> *xyzfile 1 1 /users/fjb15167/WWenergy/structures/Nr.xyz
|  8>
|  9>                          ****END OF INPUT****
 Total Charge           Charge          ....    1
 Multiplicity           Mult            ....    1
 Number of Electrons    NEL             ....  132
Dispersion correction           -0.063133750
FINAL SINGLE POINT ENERGY      -818.030695917868
Dispersion correction            ... Starting D4
Dispersion correction           -0.061956506
FINAL SINGLE POINT ENERGY      -818.034597031492
Dispersion correction            ... Starting D4
Dispersion correction           -0.062108379
FINAL SINGLE POINT ENERGY      -818.035854560439
Dispersion correction            ... Starting D4
FINAL SINGLE POINT ENERGY      -818.036310744198
FINAL SINGLE POINT ENERGY      -818.036599043796
FINAL SINGLE POINT ENERGY      -818.036677288885
FINAL SINGLE POINT ENERGY      -818.036771874678
FINAL SINGLE POINT ENERGY      -818.036836423513
FINAL SINGLE POINT ENERGY      -818.036877212715
FINAL SINGLE POINT ENERGY      -818.036909971617
FINAL SINGLE POINT ENERGY      -818.036947545014
FINAL SINGLE POINT ENERGY      -818.036958680561
FINAL SINGLE POINT ENERGY      -818.036974407421
FINAL SINGLE POINT ENERGY      -818.036987432118
FINAL SINGLE POINT ENERGY      -818.037001926661
Dispersion correction           -0.062665669
FINAL SINGLE POINT ENERGY      -818.037012467317
Dispersion correction            ... Starting D4
Dispersion correction           -0.062651532
FINAL SINGLE POINT ENERGY      -818.037019805512
Dispersion correction            ... Starting D4
                    ***********************HURRAY********************

CARTESIAN COORDINATES (ANGSTROEM)
---------------------------------
  C      1.974646    2.198054    0.331578
  H      1.711775    1.936518    1.361055
  H      1.739440    3.249415    0.155032
  H      3.055943    2.060731    0.215014
  C      1.220500    1.371109   -0.690161
  N      1.137961    0.020489   -0.495244
  C      1.644063   -0.642259    0.709872
  H      1.105455   -0.304448    1.600310
  H      1.442036   -1.713097    0.603098
  C      3.136091   -0.467389    1.037006
  N      4.052243   -0.577922    0.051430
  O      3.450720   -0.224876    2.217071
  O      0.702489    1.914722   -1.681311
  C      3.773895   -1.088553   -1.291619
  H      3.591073   -0.274839   -2.003052
  H      4.645328   -1.659987   -1.625016
  H      2.919764   -1.764394   -1.284734
  C      5.452702   -0.270915    0.342098
  H      6.009802   -1.181827    0.597828
  H      5.903432    0.182474   -0.545813
  H      5.509632    0.427698    1.177487
  C      0.313579   -0.784858   -1.407904
  H      0.251490   -0.252279   -2.357802
  C     -1.088321   -1.076722   -0.858237
  H     -1.598101   -1.733263   -1.576074
  H     -1.013600   -1.627911    0.088400
  C     -1.918435    0.187684   -0.642695
  H     -1.429102    0.840714    0.088037
  H     -2.020994    0.741342   -1.584448
  N     -3.243870   -0.175891   -0.129123
  H     -3.522995   -1.148978   -0.188814
  C     -4.138391    0.694140    0.349641
  N     -3.875326    2.009581    0.343277
  N     -5.289082    0.250690    0.877715
  H     -3.124097    2.389236   -0.217705
  H     -4.559660    2.669681    0.691095
  H     -5.483666   -0.740268    0.946902
  H     -6.030351    0.891310    1.130435
  H      0.825934   -1.734914   -1.586629

 Multiplicity           Mult            ....    1
 Number of Electrons    NEL             ....  132
 Basis Dimension        Dim             ....  350

ORBITAL ENERGIES
----------------

  NO   OCC          E(Eh)            E(eV)
   0   2.0000     -19.126069      -520.4468
   1   2.0000     -19.125864      -520.4412
   2   2.0000     -14.386622      -391.4799
   3   2.0000     -14.380702      -391.3188
   4   2.0000     -14.377964      -391.2443
   5   2.0000     -14.374487      -391.1497
   6   2.0000     -14.374358      -391.1462
   7   2.0000     -10.349933      -281.6360
   8   2.0000     -10.296648      -280.1860
   9   2.0000     -10.295450      -280.1534
  10   2.0000     -10.230699      -278.3915
  11   2.0000     -10.230286      -278.3802
  12   2.0000     -10.218361      -278.0557
  13   2.0000     -10.210786      -277.8496
  14   2.0000     -10.205455      -277.7045
  15   2.0000     -10.191931      -277.3365
  16   2.0000     -10.179779      -277.0059
  17   2.0000      -1.045902       -28.4604
  18   2.0000      -1.040550       -28.3148
  19   2.0000      -1.038100       -28.2481
  20   2.0000      -0.948943       -25.8220
  21   2.0000      -0.937952       -25.5230
  22   2.0000      -0.931950       -25.3597
  23   2.0000      -0.916297       -24.9337
  24   2.0000      -0.800186       -21.7742
  25   2.0000      -0.751909       -20.4605
  26   2.0000      -0.748350       -20.3636
  27   2.0000      -0.721514       -19.6334
  28   2.0000      -0.704404       -19.1678
  29   2.0000      -0.690223       -18.7819
  30   2.0000      -0.657272       -17.8853
  31   2.0000      -0.630974       -17.1697
  32   2.0000      -0.603217       -16.4144
  33   2.0000      -0.575643       -15.6640
  34   2.0000      -0.572706       -15.5841
  35   2.0000      -0.543661       -14.7938
  36   2.0000      -0.514775       -14.0077
  37   2.0000      -0.513331       -13.9684
  38   2.0000      -0.506786       -13.7903
  39   2.0000      -0.503926       -13.7125
  40   2.0000      -0.494344       -13.4518
  41   2.0000      -0.487020       -13.2525
  42   2.0000      -0.476989       -12.9795
  43   2.0000      -0.471018       -12.8171
  44   2.0000      -0.464048       -12.6274
  45   2.0000      -0.453992       -12.3538
  46   2.0000      -0.440304       -11.9813
  47   2.0000      -0.426285       -11.5998
  48   2.0000      -0.419029       -11.4024
  49   2.0000      -0.414648       -11.2831
  50   2.0000      -0.409656       -11.1473
  51   2.0000      -0.406972       -11.0743
  52   2.0000      -0.402060       -10.9406
  53   2.0000      -0.397940       -10.8285
  54   2.0000      -0.390360       -10.6222
  55   2.0000      -0.381129       -10.3710
  56   2.0000      -0.367760       -10.0072
  57   2.0000      -0.365442        -9.9442
  58   2.0000      -0.357194        -9.7197
  59   2.0000      -0.354253        -9.6397
  60   2.0000      -0.300124        -8.1668
  61   2.0000      -0.280958        -7.6453
  62   2.0000      -0.275640        -7.5005
  63   2.0000      -0.266303        -7.2465
  64   2.0000      -0.254073        -6.9137
  65   2.0000      -0.249419        -6.7870
  66   0.0000      -0.002937        -0.0799
  67   0.0000      -0.000144        -0.0039
  68   0.0000       0.002424         0.0660
  69   0.0000       0.005200         0.1415
  70   0.0000       0.006971         0.1897

MULLIKEN ATOMIC CHARGES
-----------------------
   0 C :   -0.882356
   1 H :    0.257453
   2 H :    0.245959
   3 H :    0.275514
   4 C :    0.589904
   5 N :   -0.184258
   6 C :   -0.291569
   7 H :    0.273622
   8 H :    0.285014
   9 C :    0.086716
  10 N :   -0.041534
  11 O :   -0.588723
  12 O :   -0.592259
  13 C :   -0.475787
  14 H :    0.242858
  15 H :    0.237756
  16 H :    0.233396
  17 C :   -0.564041
  18 H :    0.236207
  19 H :    0.230810
  20 H :    0.235973
  21 C :   -0.269807
  22 H :    0.246380
  23 C :   -0.585876
  24 H :    0.240035
  25 H :    0.244824
  26 C :   -0.420558
  27 H :    0.253528
  28 H :    0.250426
  29 N :   -0.530899
  30 H :    0.470292
  31 C :    0.972375
  32 N :   -0.933542
  33 N :   -0.859695
  34 H :    0.460907
  35 H :    0.486809
  36 H :    0.463084
  37 H :    0.467127
  38 H :    0.233934
Sum of atomic charges:    1.0000000

LOEWDIN ATOMIC CHARGES
----------------------
   0 C :   -0.454297
   1 H :    0.230616
   2 H :    0.219280
   3 H :    0.239202
   4 C :    0.101332
   5 N :   -0.338189
   6 C :   -0.230775
   7 H :    0.249371
   8 H :    0.258268
   9 C :    0.087723
  10 N :   -0.322946
  11 O :   -0.469636
  12 O :   -0.465298
  13 C :   -0.342338
  14 H :    0.221266
  15 H :    0.215006
  16 H :    0.225636
  17 C :   -0.350296
  18 H :    0.210633
  19 H :    0.213557
  20 H :    0.227522
  21 C :   -0.248437
  22 H :    0.245830
  23 C :   -0.342772
  24 H :    0.217853
  25 H :    0.222625
  26 C :   -0.233454
  27 H :    0.234328
  28 H :    0.226352
  29 N :   -0.346527
  30 H :    0.367517
  31 C :    0.149792
  32 N :   -0.446397
  33 N :   -0.438250
  34 H :    0.360927
  35 H :    0.361060
  36 H :    0.360180
  37 H :    0.359613
  38 H :    0.224120

  Mayer bond orders larger than 0.100000
B(  0-C ,  1-H ) :   0.9443 B(  0-C ,  2-H ) :   0.9974 B(  0-C ,  3-H ) :   0.9161
B(  0-C ,  4-C ) :   0.5058 B(  0-C ,  5-N ) :  -0.1649 B(  4-C ,  5-N ) :   1.2295
B(  4-C , 12-O ) :   1.7963 B(  5-N ,  6-C ) :   0.8232 B(  5-N , 21-C ) :   0.7626
B(  6-C ,  7-H ) :   0.9659 B(  6-C ,  8-H ) :   0.8609 B(  6-C ,  9-C ) :   0.8741
B(  6-C , 10-N ) :  -0.2769 B(  6-C , 11-O ) :  -0.1568 B(  9-C , 10-N ) :   1.3810
B(  9-C , 11-O ) :   1.8617 B( 10-N , 13-C ) :   0.8132 B( 10-N , 17-C ) :   0.8162
B( 12-O , 21-C ) :  -0.1194 B( 13-C , 14-H ) :   0.9179 B( 13-C , 15-H ) :   0.9309
B( 13-C , 16-H ) :   0.9260 B( 17-C , 18-H ) :   0.9280 B( 17-C , 19-H ) :   0.9420
B( 17-C , 20-H ) :   0.9569 B( 21-C , 22-H ) :   1.0033 B( 21-C , 23-C ) :   0.6343
B( 21-C , 38-H ) :   0.9473 B( 23-C , 24-H ) :   0.9824 B( 23-C , 25-H ) :   1.0591
B( 23-C , 26-C ) :   0.6045 B( 23-C , 29-N ) :  -0.1040 B( 25-H , 26-C ) :  -0.1119
B( 26-C , 27-H ) :   0.9705 B( 26-C , 28-H ) :   0.9174 B( 26-C , 29-N ) :   1.0632
B( 26-C , 31-C ) :  -0.1147 B( 29-N , 30-H ) :   0.7169 B( 29-N , 31-C ) :   1.1317
B( 31-C , 32-N ) :   1.1579 B( 31-C , 33-N ) :   1.1913 B( 32-N , 34-H ) :   0.7407
B( 32-N , 35-H ) :   0.7298 B( 33-N , 36-H ) :   0.7459 B( 33-N , 37-H ) :   0.7405

Dispersion correction           -0.062642460
FINAL SINGLE POINT ENERGY      -818.037020818848

DIPOLE MOMENT
-------------
                                X             Y             Z
Electronic contribution:     -8.53493       2.01267       2.64156
Nuclear contribution   :      0.87275      -3.12266      -3.00621
                        -----------------------------------------
Total Dipole Moment    :     -7.66218      -1.10999      -0.36465
                        -----------------------------------------
Magnitude (a.u.)       :      7.75075
Magnitude (Debye)      :     19.70083

Dispersion correction in the Hessian             ... Starting D4

VIBRATIONAL FREQUENCIES
-----------------------

Scaling factor for frequencies =  1.000000000  (already applied!)

   0:         0.00 cm**-1
   1:         0.00 cm**-1
   2:         0.00 cm**-1
   3:         0.00 cm**-1
   4:         0.00 cm**-1
   5:         0.00 cm**-1
   6:       -82.15 cm**-1 ***imaginary mode***
   7:        26.66 cm**-1
   8:        35.57 cm**-1
   9:        41.01 cm**-1
  10:        59.12 cm**-1
  11:        75.84 cm**-1
  12:        77.12 cm**-1
  13:        87.00 cm**-1
  14:        97.26 cm**-1
  15:       110.26 cm**-1
  16:       129.99 cm**-1
  17:       141.88 cm**-1
  18:       162.90 cm**-1
  19:       175.03 cm**-1
  20:       180.27 cm**-1
  21:       201.50 cm**-1
  22:       239.89 cm**-1
  23:       262.24 cm**-1
  24:       282.05 cm**-1
  25:       289.69 cm**-1
  26:       307.25 cm**-1
  27:       323.17 cm**-1
  28:       337.49 cm**-1
  29:       390.70 cm**-1
  30:       417.47 cm**-1
  31:       442.82 cm**-1
  32:       457.97 cm**-1
  33:       481.97 cm**-1
  34:       507.49 cm**-1
  35:       552.02 cm**-1
  36:       570.72 cm**-1
  37:       580.59 cm**-1
  38:       601.53 cm**-1
  39:       605.52 cm**-1
  40:       622.49 cm**-1
  41:       675.66 cm**-1
  42:       713.99 cm**-1
  43:       739.69 cm**-1
  44:       795.61 cm**-1
  45:       815.85 cm**-1
  46:       896.36 cm**-1
  47:       932.23 cm**-1
  48:       979.82 cm**-1
  49:       994.55 cm**-1
  50:      1005.27 cm**-1
  51:      1036.77 cm**-1
  52:      1061.43 cm**-1
  53:      1068.53 cm**-1
  54:      1083.83 cm**-1
  55:      1090.05 cm**-1
  56:      1102.65 cm**-1
  57:      1122.72 cm**-1
  58:      1129.54 cm**-1
  59:      1143.72 cm**-1
  60:      1165.00 cm**-1
  61:      1187.36 cm**-1
  62:      1193.81 cm**-1
  63:      1205.54 cm**-1
  64:      1263.94 cm**-1
  65:      1286.71 cm**-1
  66:      1294.46 cm**-1
  67:      1312.96 cm**-1
  68:      1341.57 cm**-1
  69:      1358.80 cm**-1
  70:      1377.64 cm**-1
  71:      1408.25 cm**-1
  72:      1409.34 cm**-1
  73:      1424.27 cm**-1
  74:      1441.22 cm**-1
  75:      1456.51 cm**-1
  76:      1460.25 cm**-1
  77:      1477.28 cm**-1
  78:      1480.11 cm**-1
  79:      1485.05 cm**-1
  80:      1488.63 cm**-1
  81:      1493.06 cm**-1
  82:      1498.54 cm**-1
  83:      1501.27 cm**-1
  84:      1507.70 cm**-1
  85:      1510.63 cm**-1
  86:      1524.23 cm**-1
  87:      1527.41 cm**-1
  88:      1543.39 cm**-1
  89:      1614.24 cm**-1
  90:      1656.93 cm**-1
  91:      1659.69 cm**-1
  92:      1662.94 cm**-1
  93:      1683.32 cm**-1
  94:      1702.42 cm**-1
  95:      3044.05 cm**-1
  96:      3044.82 cm**-1
  97:      3054.22 cm**-1
  98:      3058.03 cm**-1
  99:      3066.31 cm**-1
 100:      3079.09 cm**-1
 101:      3082.27 cm**-1
 102:      3090.46 cm**-1
 103:      3107.11 cm**-1
 104:      3113.87 cm**-1
 105:      3122.27 cm**-1
 106:      3125.17 cm**-1
 107:      3132.82 cm**-1
 108:      3155.64 cm**-1
 109:      3162.71 cm**-1
 110:      3172.72 cm**-1
 111:      3183.43 cm**-1
 112:      3586.30 cm**-1
 113:      3587.32 cm**-1
 114:      3596.03 cm**-1
 115:      3697.15 cm**-1
 116:      3701.83 cm**-1

IR SPECTRUM
-----------

 Mode   freq       eps      Int      T**2         TX        TY        TZ
       cm**-1   L/(mol*cm) km/mol    a.u.
----------------------------------------------------------------------------
  7:     26.66   0.002300   11.62  0.026914  (-0.071170  0.016587 -0.146880)
  8:     35.57   0.000507    2.56  0.004443  ( 0.002551  0.060623 -0.027600)
  9:     41.01   0.001595    8.06  0.012134  (-0.054899 -0.088366 -0.036220)
 10:     59.12   0.002157   10.90  0.011388  (-0.046310  0.077301 -0.057169)
 11:     75.84   0.001552    7.84  0.006387  ( 0.029269 -0.017312 -0.072323)
 12:     77.12   0.002404   12.15  0.009730  (-0.090305 -0.005091  0.039357)
 13:     87.00   0.000513    2.59  0.001841  ( 0.004055  0.019827 -0.037836)
 14:     97.26   0.000795    4.02  0.002551  ( 0.043376 -0.025796  0.001991)
 15:    110.26   0.002036   10.29  0.005761  ( 0.051368  0.006954 -0.055446)
 16:    129.99   0.001885    9.52  0.004525  (-0.029434 -0.038647 -0.046529)
 17:    141.88   0.001491    7.53  0.003279  (-0.029758  0.043843 -0.021716)
 18:    162.90   0.003333   16.84  0.006385  ( 0.010652  0.018326 -0.077045)
 19:    175.03   0.000128    0.65  0.000228  ( 0.001429 -0.014723 -0.003007)
 20:    180.27   0.000076    0.38  0.000131  ( 0.002591  0.010621  0.003415)
 21:    201.50   0.000296    1.49  0.000458  (-0.004761 -0.014794 -0.014709)
 22:    239.89   0.002143   10.83  0.002787  ( 0.012337 -0.044967  0.024761)
 23:    262.24   0.097966  495.08  0.116577  ( 0.164288  0.074782  0.289817)
 24:    282.05   0.004164   21.05  0.004607  (-0.035684  0.027521 -0.050762)
 25:    289.69   0.012182   61.56  0.013122  ( 0.062114 -0.009482  0.095783)
 26:    307.25   0.003651   18.45  0.003708  (-0.045143 -0.013718 -0.038499)
 27:    323.17   0.002063   10.43  0.001992  (-0.027952  0.000637  0.034796)
 28:    337.49   0.001190    6.01  0.001100  ( 0.024868 -0.014310  0.016644)
 29:    390.70   0.002279   11.52  0.001820  (-0.037948  0.007847  0.017850)
 30:    417.47   0.001514    7.65  0.001132  (-0.027558 -0.019232 -0.001503)
 31:    442.82   0.005618   28.39  0.003959  ( 0.048836 -0.015437  0.036548)
 32:    457.97   0.002355   11.90  0.001605  (-0.025184 -0.026133 -0.016954)
 33:    481.97   0.023905  120.80  0.015477  ( 0.058172 -0.028599  0.106186)
 34:    507.49   0.004611   23.30  0.002835  (-0.034723 -0.025034 -0.031670)
 35:    552.02   0.000949    4.80  0.000537  ( 0.015827 -0.016666  0.002907)
 36:    570.72   0.004669   23.60  0.002553  (-0.003213 -0.015359  0.048031)
 37:    580.59   0.002641   13.35  0.001420  ( 0.004971 -0.028952  0.023598)
 38:    601.53   0.002172   10.98  0.001127  (-0.032102  0.001650  0.009681)
 39:    605.52   0.003108   15.71  0.001602  (-0.020732  0.027793  0.019992)
 40:    622.49   0.002215   11.19  0.001110  (-0.025980  0.019685  0.006912)
 41:    675.66   0.003830   19.36  0.001769  ( 0.029970 -0.023881 -0.017332)
 42:    713.99   0.000434    2.20  0.000190  (-0.001283 -0.003108  0.013362)
 43:    739.69   0.002852   14.41  0.001203  (-0.026695  0.018354  0.012392)
 44:    795.61   0.003171   16.02  0.001244  (-0.005884  0.019542  0.028760)
 45:    815.85   0.000493    2.49  0.000189  ( 0.000491  0.005485  0.012579)
 46:    896.36   0.001772    8.96  0.000617  ( 0.006968 -0.018483  0.015058)
 47:    932.23   0.000333    1.68  0.000111  ( 0.009127  0.004797 -0.002276)
 48:    979.82   0.000595    3.01  0.000190  ( 0.007014  0.006734  0.009746)
 49:    994.55   0.002945   14.88  0.000924  ( 0.016095 -0.020600 -0.015509)
 50:   1005.27   0.007886   39.85  0.002448  ( 0.027745  0.027598 -0.030273)
 51:   1036.77   0.003033   15.33  0.000913  (-0.021772  0.015641 -0.013940)
 52:   1061.43   0.003303   16.69  0.000971  ( 0.029791 -0.002997 -0.008637)
 53:   1068.53   0.005713   28.87  0.001669  (-0.006512  0.036850 -0.016376)
 54:   1083.83   0.004296   21.71  0.001237  (-0.025457 -0.009791 -0.022205)
 55:   1090.05   0.000256    1.29  0.000073  ( 0.004673  0.007155  0.000557)
 56:   1102.65   0.000888    4.49  0.000251  (-0.005567 -0.014811  0.001019)
 57:   1122.72   0.000952    4.81  0.000265  (-0.013566  0.005580  0.007037)
 58:   1129.54   0.001345    6.80  0.000372  (-0.007935 -0.001563  0.017496)
 59:   1143.72   0.001956    9.88  0.000534  (-0.012840  0.011787 -0.015161)
 60:   1165.00   0.000489    2.47  0.000131  (-0.007237 -0.007715 -0.004381)
 61:   1187.36   0.007614   38.48  0.002001  ( 0.044307  0.005921 -0.001719)
 62:   1193.81   0.016167   81.70  0.004226  ( 0.045490 -0.008994 -0.045560)
 63:   1205.54   0.009075   45.86  0.002349  (-0.031844 -0.010199 -0.035087)
 64:   1263.94   0.013913   70.31  0.003435  ( 0.008587  0.055286  0.017457)
 65:   1286.71   0.006500   32.85  0.001576  (-0.036251  0.016044 -0.002203)
 66:   1294.46   0.013295   67.19  0.003205  ( 0.032529  0.046329 -0.000800)
 67:   1312.96   0.007405   37.42  0.001760  (-0.002646 -0.035330  0.022470)
 68:   1341.57   0.008745   44.19  0.002034  (-0.019274 -0.034417  0.021866)
 69:   1358.80   0.016902   85.41  0.003882  (-0.003264 -0.050946  0.035714)
 70:   1377.64   0.007958   40.21  0.001803  ( 0.024433 -0.022602  0.026358)
 71:   1408.25   0.008885   44.90  0.001969  (-0.035201 -0.025068  0.010070)
 72:   1409.34   0.002058   10.40  0.000456  (-0.011490 -0.003336 -0.017676)
 73:   1424.27   0.003033   15.33  0.000665  ( 0.015367 -0.017473 -0.011101)
 74:   1441.22   0.026809  135.48  0.005805  (-0.056454  0.018648  0.047646)
 75:   1456.51   0.027886  140.93  0.005975  ( 0.027651  0.069276 -0.020271)
 76:   1460.25   0.016326   82.50  0.003489  (-0.009685  0.056369 -0.014750)
 77:   1477.28   0.010206   51.58  0.002156  ( 0.013788  0.044200 -0.003498)
 78:   1480.11   0.002535   12.81  0.000534  ( 0.001188  0.022047 -0.006848)
 79:   1485.05   0.006351   32.09  0.001335  (-0.025977 -0.006540 -0.024838)
 80:   1488.63   0.002587   13.08  0.000542  (-0.004501  0.012242  0.019294)
 81:   1493.06   0.004078   20.61  0.000852  ( 0.003385 -0.021332  0.019645)
 82:   1498.54   0.001595    8.06  0.000332  (-0.018104  0.001168  0.001732)
 83:   1501.27   0.011730   59.28  0.002438  ( 0.017117 -0.026022 -0.038317)
 84:   1507.70   0.001156    5.84  0.000239  ( 0.011194 -0.010600 -0.001262)
 85:   1510.63   0.004084   20.64  0.000844  (-0.025110  0.003843 -0.014087)
 86:   1524.23   0.023928  120.92  0.004899  ( 0.020530  0.066102  0.010385)
 87:   1527.41   0.005994   30.29  0.001225  ( 0.034278 -0.003664 -0.006011)
 88:   1543.39   0.019430   98.19  0.003929  ( 0.058820 -0.021494 -0.002639)
 89:   1614.24   0.021152  106.89  0.004089  ( 0.010731 -0.061827 -0.012303)
 90:   1656.93   0.097791  494.19  0.018418  (-0.078850  0.079245  0.076946)
 91:   1659.69   0.230149  1163.08  0.043274  (-0.040307  0.083604 -0.186170)
 92:   1662.94   0.100911  509.96  0.018937  ( 0.058719 -0.103219 -0.069531)
 93:   1683.32   0.158134  799.14  0.029316  (-0.146528 -0.061736  0.063514)
 94:   1702.42   0.033875  171.19  0.006210  (-0.014554  0.077373  0.003339)
 95:   3044.05   0.011971   60.50  0.001227  ( 0.033351 -0.007970  0.007172)
 96:   3044.82   0.002396   12.11  0.000246  (-0.002040 -0.015531  0.000474)
 97:   3054.22   0.009798   49.52  0.001001  ( 0.014601  0.025876 -0.010880)
 98:   3058.03   0.011315   57.18  0.001155  ( 0.008096 -0.003951 -0.032764)
 99:   3066.31   0.000734    3.71  0.000075  (-0.004442 -0.005141 -0.005342)
100:   3079.09   0.001872    9.46  0.000190  (-0.006365  0.007140  0.009912)
101:   3082.27   0.005541   28.00  0.000561  (-0.000615  0.006804 -0.022679)
102:   3090.46   0.008669   43.81  0.000875  (-0.007909  0.026069  0.011541)
103:   3107.11   0.009497   47.99  0.000954  (-0.011196 -0.006738 -0.027984)
104:   3113.87   0.009533   48.17  0.000955  (-0.002496  0.027720 -0.013443)
105:   3122.27   0.003348   16.92  0.000335  ( 0.014624 -0.010093 -0.004352)
106:   3125.17   0.001371    6.93  0.000137  (-0.004465  0.002249  0.010581)
107:   3132.82   0.001720    8.69  0.000171  ( 0.007798 -0.003737 -0.009825)
108:   3155.64   0.002554   12.91  0.000253  (-0.007903  0.003800 -0.013255)
109:   3162.71   0.002544   12.85  0.000251  (-0.002511  0.014237 -0.006480)
110:   3172.72   0.001847    9.33  0.000182  ( 0.000576  0.008411  0.010514)
111:   3183.43   0.004095   20.70  0.000401  (-0.013213 -0.015060  0.000202)
112:   3586.30   0.045042  227.62  0.003919  ( 0.043144  0.040466 -0.020506)
113:   3587.32   0.049035  247.80  0.004266  (-0.018565  0.061863  0.009689)
114:   3596.03   0.009859   49.82  0.000856  ( 0.024711  0.015635 -0.000720)
115:   3697.15   0.036959  186.77  0.003120  (-0.045905  0.014781  0.028176)
116:   3701.83   0.026722  135.04  0.002253  (-0.010812  0.046195  0.001311)

--------------------------
THERMOCHEMISTRY AT 298.15K
--------------------------

Temperature         ... 298.15 K
Pressure            ... 1.00 atm
Total Mass          ... 244.32 AMU

Throughout the following assumptions are being made:
  (1) The electronic state is orbitally nondegenerate
  (2) There are no thermally accessible electronically excited states
  (3) Hindered rotations indicated by low frequency modes are not
      treated as such but are treated as vibrations and this may
      cause some error
  (4) All equations used are the standard statistical mechanics
      equations for an ideal gas
  (5) All vibrations are strictly harmonic

freq.      26.66  E(vib)   ...       0.56
freq.      35.57  E(vib)   ...       0.54
freq.      41.01  E(vib)   ...       0.54
freq.      59.12  E(vib)   ...       0.51
freq.      75.84  E(vib)   ...       0.49
freq.      77.12  E(vib)   ...       0.49
freq.      87.00  E(vib)   ...       0.48
freq.      97.26  E(vib)   ...       0.46
freq.     110.26  E(vib)   ...       0.45
freq.     129.99  E(vib)   ...       0.43
freq.     141.88  E(vib)   ...       0.41
freq.     162.90  E(vib)   ...       0.39
freq.     175.03  E(vib)   ...       0.38
freq.     180.27  E(vib)   ...       0.37
freq.     201.50  E(vib)   ...       0.35
freq.     239.89  E(vib)   ...       0.31
freq.     262.24  E(vib)   ...       0.29
freq.     282.05  E(vib)   ...       0.28
freq.     289.69  E(vib)   ...       0.27
freq.     307.25  E(vib)   ...       0.26
freq.     323.17  E(vib)   ...       0.25
freq.     337.49  E(vib)   ...       0.24
freq.     390.70  E(vib)   ...       0.20
freq.     417.47  E(vib)   ...       0.18
freq.     442.82  E(vib)   ...       0.17
freq.     457.97  E(vib)   ...       0.16
freq.     481.97  E(vib)   ...       0.15
freq.     507.49  E(vib)   ...       0.14
freq.     552.02  E(vib)   ...       0.12
freq.     570.72  E(vib)   ...       0.11
freq.     580.59  E(vib)   ...       0.11
freq.     601.53  E(vib)   ...       0.10
freq.     605.52  E(vib)   ...       0.10
freq.     622.49  E(vib)   ...       0.09
freq.     675.66  E(vib)   ...       0.08
freq.     713.99  E(vib)   ...       0.07
freq.     739.69  E(vib)   ...       0.06
freq.     795.61  E(vib)   ...       0.05
freq.     815.85  E(vib)   ...       0.05
freq.     896.36  E(vib)   ...       0.03
freq.     932.23  E(vib)   ...       0.03
freq.     979.82  E(vib)   ...       0.02
freq.     994.55  E(vib)   ...       0.02
freq.    1005.27  E(vib)   ...       0.02
freq.    1036.77  E(vib)   ...       0.02
freq.    1061.43  E(vib)   ...       0.02
freq.    1068.53  E(vib)   ...       0.02
freq.    1083.83  E(vib)   ...       0.02
freq.    1090.05  E(vib)   ...       0.02
freq.    1102.65  E(vib)   ...       0.02
freq.    1122.72  E(vib)   ...       0.01
freq.    1129.54  E(vib)   ...       0.01
freq.    1143.72  E(vib)   ...       0.01
freq.    1165.00  E(vib)   ...       0.01
freq.    1187.36  E(vib)   ...       0.01
freq.    1193.81  E(vib)   ...       0.01
freq.    1205.54  E(vib)   ...       0.01
freq.    1263.94  E(vib)   ...       0.01
freq.    1286.71  E(vib)   ...       0.01
freq.    1294.46  E(vib)   ...       0.01
freq.    1312.96  E(vib)   ...       0.01
freq.    1341.57  E(vib)   ...       0.01
freq.    1358.80  E(vib)   ...       0.01
freq.    1377.64  E(vib)   ...       0.01
freq.    1408.25  E(vib)   ...       0.00
freq.    1409.34  E(vib)   ...       0.00
freq.    1424.27  E(vib)   ...       0.00
freq.    1441.22  E(vib)   ...       0.00
freq.    1456.51  E(vib)   ...       0.00
freq.    1460.25  E(vib)   ...       0.00
freq.    1477.28  E(vib)   ...       0.00
freq.    1480.11  E(vib)   ...       0.00
freq.    1485.05  E(vib)   ...       0.00
freq.    1488.63  E(vib)   ...       0.00
freq.    1493.06  E(vib)   ...       0.00
freq.    1498.54  E(vib)   ...       0.00
freq.    1501.27  E(vib)   ...       0.00
freq.    1507.70  E(vib)   ...       0.00
freq.    1510.63  E(vib)   ...       0.00
freq.    1524.23  E(vib)   ...       0.00
freq.    1527.41  E(vib)   ...       0.00
freq.    1543.39  E(vib)   ...       0.00
freq.    1614.24  E(vib)   ...       0.00
freq.    1656.93  E(vib)   ...       0.00
freq.    1659.69  E(vib)   ...       0.00
freq.    1662.94  E(vib)   ...       0.00
freq.    1683.32  E(vib)   ...       0.00
freq.    1702.42  E(vib)   ...       0.00
freq.    3044.05  E(vib)   ...       0.00
freq.    3044.82  E(vib)   ...       0.00
freq.    3054.22  E(vib)   ...       0.00
freq.    3058.03  E(vib)   ...       0.00
freq.    3066.31  E(vib)   ...       0.00
freq.    3079.09  E(vib)   ...       0.00
freq.    3082.27  E(vib)   ...       0.00
freq.    3090.46  E(vib)   ...       0.00
freq.    3107.11  E(vib)   ...       0.00
freq.    3113.87  E(vib)   ...       0.00
freq.    3122.27  E(vib)   ...       0.00
freq.    3125.17  E(vib)   ...       0.00
freq.    3132.82  E(vib)   ...       0.00
freq.    3155.64  E(vib)   ...       0.00
freq.    3162.71  E(vib)   ...       0.00
freq.    3172.72  E(vib)   ...       0.00
freq.    3183.43  E(vib)   ...       0.00
freq.    3586.30  E(vib)   ...       0.00
freq.    3587.32  E(vib)   ...       0.00
freq.    3596.03  E(vib)   ...       0.00
freq.    3697.15  E(vib)   ...       0.00
freq.    3701.83  E(vib)   ...       0.00

------------
INNER ENERGY
------------

The inner energy is: U= E(el) + E(ZPE) + E(vib) + E(rot) + E(trans)
    E(el)   - is the total energy from the electronic structure calculation
              = E(kin-el) + E(nuc-el) + E(el-el) + E(nuc-nuc)
    E(ZPE)  - the the zero temperature vibrational energy from the frequency calculation
    E(vib)  - the the finite temperature correction to E(ZPE) due to population
              of excited vibrational states
    E(rot)  - is the rotational thermal energy
    E(trans)- is the translational thermal energy

Summary of contributions to the inner energy U:
Electronic energy                ...   -818.03702082 Eh
Zero point energy                ...      0.34133987 Eh     214.19 kcal/mol
Thermal vibrational correction   ...      0.01771201 Eh      11.11 kcal/mol
Thermal rotational correction    ...      0.00141627 Eh       0.89 kcal/mol
Thermal translational correction ...      0.00141627 Eh       0.89 kcal/mol
-----------------------------------------------------------------------
Total thermal energy                   -817.67513640 Eh

Summary of corrections to the electronic energy:
(perhaps to be used in another calculation)
Total thermal correction                  0.02054455 Eh      12.89 kcal/mol
Non-thermal (ZPE) correction              0.34133987 Eh     214.19 kcal/mol
-----------------------------------------------------------------------
Total correction                          0.36188442 Eh     227.09 kcal/mol

--------
ENTHALPY

Rotational constants in cm-1:     0.031932     0.006169     0.006137

                             ****ORCA TERMINATED NORMALLY****
TOTAL RUN TIME: 0 days 1 hours 18 minutes 20 seconds 112 msec
